
     Program BANDS v.6.7MaX starts on 23Feb2021 at  2:50:21 

     This program is part of the open-source Quantum ESPRESSO suite
     for quantum simulation of materials; please cite
         "P. Giannozzi et al., J. Phys.:Condens. Matter 21 395502 (2009);
         "P. Giannozzi et al., J. Phys.:Condens. Matter 29 465901 (2017);
          URL http://www.quantum-espresso.org", 
     in publications or presentations arising from this work. More details at
     http://www.quantum-espresso.org/quote

     Parallel version (MPI), running on    40 processors

     MPI processes distributed on     1 nodes
     R & G space division:  proc/nbgrp/npool/nimage =      40

     Reading xml data from directory:

     ./work/GeTe-mono.save/
     Message from routine read_pp_mesh:
     mesh size missing, using the one in header
     Message from routine read_pp_mesh:
     mesh size missing, using the one in header

     IMPORTANT: XC functional enforced from input :
     Exchange-correlation= PBE
                           (   1   4   3   4   0   0   0)
     Any further DFT definition will be discarded
     Please, verify this is what you really want

 
     Parallelization info
     --------------------
     sticks:   dense  smooth     PW     G-vecs:    dense   smooth      PW
     Min          79      26      7                15547     2980     455
     Max          80      27      8                15558     3001     480
     Sum        3163    1049    299               622029   119627   18617
 
     Reading collected, re-writing distributed wavefunctions
     high-symmetry point:  0.0000 0.0000 0.0000   x coordinate   0.0000
     high-symmetry point:  0.5000 0.0000 0.0000   x coordinate   0.5000
     high-symmetry point:  0.5000 0.4835 0.0000   x coordinate   0.9835
     high-symmetry point:  0.0000 0.4835 0.0000   x coordinate   1.4835
     high-symmetry point:  0.0000 0.0000 0.0000   x coordinate   1.9669

     Plottable bands (eV) written to file GeTe-mono.bands.gnu
     Bands written to file GeTe-mono.bands

 **************************************************************************

                    xk=(   0.00000,   0.00000,   0.00000  )

     point group C_s (m)    
     there are  2 classes
     the character table:

       E     s    
A'     1.00  1.00
A''    1.00 -1.00

     the symmetry operations in each class and the name of the first element:

     E        1
                                                                 
     s        2
                                                                 

     Band symmetry, C_s (m)     point group:

     e(  1 -  1) =    -36.65510  eV     1   --> A'             
     e(  2 -  2) =    -36.65448  eV     1   --> A'             
     e(  3 -  3) =    -36.65315  eV     1   --> A''            
     e(  4 -  4) =    -36.65293  eV     1   --> A''            
     e(  5 -  5) =    -36.63908  eV     1   --> A'             
     e(  6 -  6) =    -36.63867  eV     1   --> A'             
     e(  7 -  7) =    -36.62961  eV     1   --> A''            
     e(  8 -  8) =    -36.62923  eV     1   --> A''            
     e(  9 -  9) =    -36.62542  eV     1   --> A'             
     e( 10 - 10) =    -36.62457  eV     1   --> A'             
     e( 11 - 11) =    -24.66884  eV     1   --> A'             
     e( 12 - 12) =    -24.66223  eV     1   --> A'             
     e( 13 - 13) =    -24.65855  eV     1   --> A''            
     e( 14 - 14) =    -24.65778  eV     1   --> A''            
     e( 15 - 15) =    -24.65042  eV     1   --> A'             
     e( 16 - 16) =    -24.64638  eV     1   --> A'             
     e( 17 - 17) =    -24.63692  eV     1   --> A''            
     e( 18 - 18) =    -24.63679  eV     1   --> A''            
     e( 19 - 19) =    -24.63610  eV     1   --> A'             
     e( 20 - 20) =    -24.63280  eV     1   --> A'             
     e( 21 - 21) =    -12.53759  eV     1   --> A'             
     e( 22 - 22) =    -11.10319  eV     1   --> A'             
     e( 23 - 23) =     -7.00164  eV     1   --> A'             
     e( 24 - 24) =     -5.76727  eV     1   --> A'             
     e( 25 - 25) =     -3.36827  eV     1   --> A'             
     e( 26 - 26) =     -3.04261  eV     1   --> A'             
     e( 27 - 27) =     -2.93542  eV     1   --> A''            
     e( 28 - 28) =     -1.62300  eV     1   --> A'             
     e( 29 - 29) =     -1.61287  eV     1   --> A''            
     e( 30 - 30) =     -0.97021  eV     1   --> A'             
     e( 31 - 31) =      1.58806  eV     1   --> A'             
     e( 32 - 32) =      2.68388  eV     1   --> A'             
     e( 33 - 33) =      3.33061  eV     1   --> A'             
     e( 34 - 34) =      3.69768  eV     1   --> A'             
     e( 35 - 35) =      3.77310  eV     1   --> A''            
     e( 36 - 36) =      4.42966  eV     1   --> A'             
     e( 37 - 37) =      4.58473  eV     1   --> A'             
     e( 38 - 38) =      4.66641  eV     1   --> A''            
     e( 39 - 39) =      5.09737  eV     1   --> A'             
     e( 40 - 40) =      5.17088  eV     1   --> A'             
     e( 41 - 41) =      5.56896  eV     1   --> A'             
     e( 42 - 42) =      6.32134  eV     1   --> A'             
     e( 43 - 43) =      7.03835  eV     1   --> A'             
     e( 44 - 44) =      7.43265  eV     1   --> A'             
     e( 45 - 45) =      7.52433  eV     1   --> A''            
     e( 46 - 46) =      8.05887  eV     1   --> A''            
     e( 47 - 47) =      8.23981  eV     1   --> A'             
     e( 48 - 48) =      9.27186  eV     1   --> A'             
     e( 49 - 49) =      9.35685  eV     1   --> A'             
     e( 50 - 50) =      9.63397  eV     1   --> A'             
     e( 51 - 51) =      9.75563  eV     1   --> A''            
     e( 52 - 52) =     10.07283  eV     1   --> A''            
     e( 53 - 53) =     10.11765  eV     1   --> A'             
     e( 54 - 54) =     10.63682  eV     1   --> A'             
     e( 55 - 55) =     11.40625  eV     1   --> A'             
     e( 56 - 56) =     11.44692  eV     1   --> A'             
     e( 57 - 57) =     11.77872  eV     1   --> A'             
     e( 58 - 58) =     12.14295  eV     1   --> A'             
     e( 59 - 59) =     12.22805  eV     1   --> A''            
     e( 60 - 60) =     12.33606  eV     1   --> A'             

 **************************************************************************

 **************************************************************************

                    xk=(   0.01000,   0.00000,   0.00000  )

     point group C_1 (1)    
     there are  1 classes
     the character table:

       E    
A      1.00

     the symmetry operations in each class and the name of the first element:

     E        1
                                                                 

     Band symmetry, C_1 (1)     point group:

     e(  1 -  1) =    -36.65509  eV     1   --> A              
     e(  2 -  2) =    -36.65447  eV     1   --> A              
     e(  3 -  3) =    -36.65315  eV     1   --> A              
     e(  4 -  4) =    -36.65293  eV     1   --> A              
     e(  5 -  5) =    -36.63908  eV     1   --> A              
     e(  6 -  6) =    -36.63867  eV     1   --> A              
     e(  7 -  7) =    -36.62961  eV     1   --> A              
     e(  8 -  8) =    -36.62923  eV     1   --> A              
     e(  9 -  9) =    -36.62542  eV     1   --> A              
     e( 10 - 10) =    -36.62457  eV     1   --> A              
     e( 11 - 11) =    -24.66883  eV     1   --> A              
     e( 12 - 12) =    -24.66223  eV     1   --> A              
     e( 13 - 13) =    -24.65855  eV     1   --> A              
     e( 14 - 14) =    -24.65778  eV     1   --> A              
     e( 15 - 15) =    -24.65042  eV     1   --> A              
     e( 16 - 16) =    -24.64638  eV     1   --> A              
     e( 17 - 17) =    -24.63692  eV     1   --> A              
     e( 18 - 18) =    -24.63679  eV     1   --> A              
     e( 19 - 19) =    -24.63609  eV     1   --> A              
     e( 20 - 20) =    -24.63280  eV     1   --> A              
     e( 21 - 21) =    -12.53693  eV     1   --> A              
     e( 22 - 22) =    -11.10272  eV     1   --> A              
     e( 23 - 23) =     -7.00357  eV     1   --> A              
     e( 24 - 24) =     -5.76870  eV     1   --> A              
     e( 25 - 25) =     -3.36944  eV     1   --> A              
     e( 26 - 26) =     -3.04252  eV     1   --> A              
     e( 27 - 27) =     -2.93382  eV     1   --> A              
     e( 28 - 28) =     -1.63600  eV     1   --> A              
     e( 29 - 29) =     -1.59703  eV     1   --> A              
     e( 30 - 30) =     -0.97039  eV     1   --> A              
     e( 31 - 31) =      1.58755  eV     1   --> A              
     e( 32 - 32) =      2.68683  eV     1   --> A              
     e( 33 - 33) =      3.32894  eV     1   --> A              
     e( 34 - 34) =      3.69799  eV     1   --> A              
     e( 35 - 35) =      3.76883  eV     1   --> A              
     e( 36 - 36) =      4.43040  eV     1   --> A              
     e( 37 - 37) =      4.58481  eV     1   --> A              
     e( 38 - 38) =      4.66387  eV     1   --> A              
     e( 39 - 39) =      5.09701  eV     1   --> A              
     e( 40 - 40) =      5.16849  eV     1   --> A              
     e( 41 - 41) =      5.56708  eV     1   --> A              
     e( 42 - 42) =      6.32154  eV     1   --> A              
     e( 43 - 43) =      7.03883  eV     1   --> A              
     e( 44 - 44) =      7.42907  eV     1   --> A              
     e( 45 - 45) =      7.52102  eV     1   --> A              
     e( 46 - 46) =      8.06685  eV     1   --> A              
     e( 47 - 47) =      8.24556  eV     1   --> A              
     e( 48 - 48) =      9.27704  eV     1   --> A              
     e( 49 - 49) =      9.35761  eV     1   --> A              
     e( 50 - 50) =      9.63510  eV     1   --> A              
     e( 51 - 51) =      9.76506  eV     1   --> A              
     e( 52 - 52) =     10.06176  eV     1   --> A              
     e( 53 - 53) =     10.12333  eV     1   --> A              
     e( 54 - 54) =     10.63905  eV     1   --> A              
     e( 55 - 55) =     11.41317  eV     1   --> A              
     e( 56 - 56) =     11.44288  eV     1   --> A              
     e( 57 - 57) =     11.77868  eV     1   --> A              
     e( 58 - 58) =     12.13641  eV     1   --> A              
     e( 59 - 59) =     12.17119  eV     1   --> A              
     e( 60 - 60) =     12.38610  eV     1   --> A              

 **************************************************************************

 **************************************************************************

                    xk=(   0.02000,   0.00000,   0.00000  )

     Band symmetry, C_1 (1)     point group:

     e(  1 -  1) =    -36.65509  eV     1   --> A              
     e(  2 -  2) =    -36.65447  eV     1   --> A              
     e(  3 -  3) =    -36.65315  eV     1   --> A              
     e(  4 -  4) =    -36.65293  eV     1   --> A              
     e(  5 -  5) =    -36.63908  eV     1   --> A              
     e(  6 -  6) =    -36.63867  eV     1   --> A              
     e(  7 -  7) =    -36.62961  eV     1   --> A              
     e(  8 -  8) =    -36.62923  eV     1   --> A              
     e(  9 -  9) =    -36.62542  eV     1   --> A              
     e( 10 - 10) =    -36.62457  eV     1   --> A              
     e( 11 - 11) =    -24.66882  eV     1   --> A              
     e( 12 - 12) =    -24.66223  eV     1   --> A              
     e( 13 - 13) =    -24.65855  eV     1   --> A              
     e( 14 - 14) =    -24.65778  eV     1   --> A              
     e( 15 - 15) =    -24.65042  eV     1   --> A              
     e( 16 - 16) =    -24.64638  eV     1   --> A              
     e( 17 - 17) =    -24.63693  eV     1   --> A              
     e( 18 - 18) =    -24.63679  eV     1   --> A              
     e( 19 - 19) =    -24.63609  eV     1   --> A              
     e( 20 - 20) =    -24.63279  eV     1   --> A              
     e( 21 - 21) =    -12.53496  eV     1   --> A              
     e( 22 - 22) =    -11.10141  eV     1   --> A              
     e( 23 - 23) =     -7.00939  eV     1   --> A              
     e( 24 - 24) =     -5.77303  eV     1   --> A              
     e( 25 - 25) =     -3.37288  eV     1   --> A              
     e( 26 - 26) =     -3.04217  eV     1   --> A              
     e( 27 - 27) =     -2.92910  eV     1   --> A              
     e( 28 - 28) =     -1.65024  eV     1   --> A              
     e( 29 - 29) =     -1.57436  eV     1   --> A              
     e( 30 - 30) =     -0.97091  eV     1   --> A              
     e( 31 - 31) =      1.58599  eV     1   --> A              
     e( 32 - 32) =      2.69566  eV     1   --> A              
     e( 33 - 33) =      3.32382  eV     1   --> A              
     e( 34 - 34) =      3.69858  eV     1   --> A              
     e( 35 - 35) =      3.75646  eV     1   --> A              
     e( 36 - 36) =      4.43260  eV     1   --> A              
     e( 37 - 37) =      4.58500  eV     1   --> A              
     e( 38 - 38) =      4.65626  eV     1   --> A              
     e( 39 - 39) =      5.09597  eV     1   --> A              
     e( 40 - 40) =      5.16132  eV     1   --> A              
     e( 41 - 41) =      5.56171  eV     1   --> A              
     e( 42 - 42) =      6.32215  eV     1   --> A              
     e( 43 - 43) =      7.04027  eV     1   --> A              
     e( 44 - 44) =      7.41877  eV     1   --> A              
     e( 45 - 45) =      7.51102  eV     1   --> A              
     e( 46 - 46) =      8.09056  eV     1   --> A              
     e( 47 - 47) =      8.26268  eV     1   --> A              
     e( 48 - 48) =      9.29270  eV     1   --> A              
     e( 49 - 49) =      9.35991  eV     1   --> A              
     e( 50 - 50) =      9.63848  eV     1   --> A              
     e( 51 - 51) =      9.79282  eV     1   --> A              
     e( 52 - 52) =     10.03580  eV     1   --> A              
     e( 53 - 53) =     10.13359  eV     1   --> A              
     e( 54 - 54) =     10.64530  eV     1   --> A              
     e( 55 - 55) =     11.43031  eV     1   --> A              
     e( 56 - 56) =     11.43331  eV     1   --> A              
     e( 57 - 57) =     11.77821  eV     1   --> A              
     e( 58 - 58) =     12.08378  eV     1   --> A              
     e( 59 - 59) =     12.11641  eV     1   --> A              
     e( 60 - 60) =     12.45078  eV     1   --> A              

 **************************************************************************

 **************************************************************************

                    xk=(   0.03000,   0.00000,   0.00000  )

     Band symmetry, C_1 (1)     point group:

     e(  1 -  1) =    -36.65508  eV     1   --> A              
     e(  2 -  2) =    -36.65446  eV     1   --> A              
     e(  3 -  3) =    -36.65315  eV     1   --> A              
     e(  4 -  4) =    -36.65293  eV     1   --> A              
     e(  5 -  5) =    -36.63907  eV     1   --> A              
     e(  6 -  6) =    -36.63867  eV     1   --> A              
     e(  7 -  7) =    -36.62961  eV     1   --> A              
     e(  8 -  8) =    -36.62923  eV     1   --> A              
     e(  9 -  9) =    -36.62541  eV     1   --> A              
     e( 10 - 10) =    -36.62457  eV     1   --> A              
     e( 11 - 11) =    -24.66881  eV     1   --> A              
     e( 12 - 12) =    -24.66223  eV     1   --> A              
     e( 13 - 13) =    -24.65856  eV     1   --> A              
     e( 14 - 14) =    -24.65779  eV     1   --> A              
     e( 15 - 15) =    -24.65041  eV     1   --> A              
     e( 16 - 16) =    -24.64639  eV     1   --> A              
     e( 17 - 17) =    -24.63694  eV     1   --> A              
     e( 18 - 18) =    -24.63680  eV     1   --> A              
     e( 19 - 19) =    -24.63607  eV     1   --> A              
     e( 20 - 20) =    -24.63279  eV     1   --> A              
     e( 21 - 21) =    -12.53168  eV     1   --> A              
     e( 22 - 22) =    -11.09924  eV     1   --> A              
     e( 23 - 23) =     -7.01903  eV     1   --> A              
     e( 24 - 24) =     -5.78025  eV     1   --> A              
     e( 25 - 25) =     -3.37849  eV     1   --> A              
     e( 26 - 26) =     -3.04138  eV     1   --> A              
     e( 27 - 27) =     -2.92145  eV     1   --> A              
     e( 28 - 28) =     -1.66189  eV     1   --> A              
     e( 29 - 29) =     -1.54876  eV     1   --> A              
     e( 30 - 30) =     -0.97180  eV     1   --> A              
     e( 31 - 31) =      1.58342  eV     1   --> A              
     e( 32 - 32) =      2.71029  eV     1   --> A              
     e( 33 - 33) =      3.31499  eV     1   --> A              
     e( 34 - 34) =      3.69750  eV     1   --> A              
     e( 35 - 35) =      3.73828  eV     1   --> A              
     e( 36 - 36) =      4.43624  eV     1   --> A              
     e( 37 - 37) =      4.58521  eV     1   --> A              
     e( 38 - 38) =      4.64367  eV     1   --> A              
     e( 39 - 39) =      5.09429  eV     1   --> A              
     e( 40 - 40) =      5.14940  eV     1   --> A              
     e( 41 - 41) =      5.55365  eV     1   --> A              
     e( 42 - 42) =      6.32323  eV     1   --> A              
     e( 43 - 43) =      7.04270  eV     1   --> A              
     e( 44 - 44) =      7.40293  eV     1   --> A              
     e( 45 - 45) =      7.49417  eV     1   --> A              
     e( 46 - 46) =      8.12936  eV     1   --> A              
     e( 47 - 47) =      8.29091  eV     1   --> A              
     e( 48 - 48) =      9.31902  eV     1   --> A              
     e( 49 - 49) =      9.36387  eV     1   --> A              
     e( 50 - 50) =      9.64415  eV     1   --> A              
     e( 51 - 51) =      9.83756  eV     1   --> A              
     e( 52 - 52) =     10.00080  eV     1   --> A              
     e( 53 - 53) =     10.14389  eV     1   --> A              
     e( 54 - 54) =     10.65428  eV     1   --> A              
     e( 55 - 55) =     11.40821  eV     1   --> A              
     e( 56 - 56) =     11.46499  eV     1   --> A              
     e( 57 - 57) =     11.77608  eV     1   --> A              
     e( 58 - 58) =     12.00257  eV     1   --> A              
     e( 59 - 59) =     12.08205  eV     1   --> A              
     e( 60 - 60) =     12.48635  eV     1   --> A              

 **************************************************************************

 **************************************************************************

                    xk=(   0.04000,   0.00000,   0.00000  )

     Band symmetry, C_1 (1)     point group:

     e(  1 -  1) =    -36.65507  eV     1   --> A              
     e(  2 -  2) =    -36.65446  eV     1   --> A              
     e(  3 -  3) =    -36.65315  eV     1   --> A              
     e(  4 -  4) =    -36.65293  eV     1   --> A              
     e(  5 -  5) =    -36.63907  eV     1   --> A              
     e(  6 -  6) =    -36.63867  eV     1   --> A              
     e(  7 -  7) =    -36.62962  eV     1   --> A              
     e(  8 -  8) =    -36.62924  eV     1   --> A              
     e(  9 -  9) =    -36.62541  eV     1   --> A              
     e( 10 - 10) =    -36.62457  eV     1   --> A              
     e( 11 - 11) =    -24.66879  eV     1   --> A              
     e( 12 - 12) =    -24.66223  eV     1   --> A              
     e( 13 - 13) =    -24.65856  eV     1   --> A              
     e( 14 - 14) =    -24.65780  eV     1   --> A              
     e( 15 - 15) =    -24.65041  eV     1   --> A              
     e( 16 - 16) =    -24.64640  eV     1   --> A              
     e( 17 - 17) =    -24.63695  eV     1   --> A              
     e( 18 - 18) =    -24.63682  eV     1   --> A              
     e( 19 - 19) =    -24.63605  eV     1   --> A              
     e( 20 - 20) =    -24.63278  eV     1   --> A              
     e( 21 - 21) =    -12.52709  eV     1   --> A              
     e( 22 - 22) =    -11.09622  eV     1   --> A              
     e( 23 - 23) =     -7.03244  eV     1   --> A              
     e( 24 - 24) =     -5.79039  eV     1   --> A              
     e( 25 - 25) =     -3.38604  eV     1   --> A              
     e( 26 - 26) =     -3.03990  eV     1   --> A              
     e( 27 - 27) =     -2.91115  eV     1   --> A              
     e( 28 - 28) =     -1.67084  eV     1   --> A              
     e( 29 - 29) =     -1.52052  eV     1   --> A              
     e( 30 - 30) =     -0.97306  eV     1   --> A              
     e( 31 - 31) =      1.57986  eV     1   --> A              
     e( 32 - 32) =      2.73057  eV     1   --> A              
     e( 33 - 33) =      3.30201  eV     1   --> A              
     e( 34 - 34) =      3.68555  eV     1   --> A              
     e( 35 - 35) =      3.72401  eV     1   --> A              
     e( 36 - 36) =      4.44128  eV     1   --> A              
     e( 37 - 37) =      4.58529  eV     1   --> A              
     e( 38 - 38) =      4.62626  eV     1   --> A              
     e( 39 - 39) =      5.09207  eV     1   --> A              
     e( 40 - 40) =      5.13281  eV     1   --> A              
     e( 41 - 41) =      5.54408  eV     1   --> A              
     e( 42 - 42) =      6.32487  eV     1   --> A              
     e( 43 - 43) =      7.04611  eV     1   --> A              
     e( 44 - 44) =      7.38300  eV     1   --> A              
     e( 45 - 45) =      7.47059  eV     1   --> A              
     e( 46 - 46) =      8.18228  eV     1   --> A              
     e( 47 - 47) =      8.32978  eV     1   --> A              
     e( 48 - 48) =      9.35604  eV     1   --> A              
     e( 49 - 49) =      9.36963  eV     1   --> A              
     e( 50 - 50) =      9.65218  eV     1   --> A              
     e( 51 - 51) =      9.89742  eV     1   --> A              
     e( 52 - 52) =      9.95886  eV     1   --> A              
     e( 53 - 53) =     10.15391  eV     1   --> A              
     e( 54 - 54) =     10.66353  eV     1   --> A              
     e( 55 - 55) =     11.37614  eV     1   --> A              
     e( 56 - 56) =     11.50563  eV     1   --> A              
     e( 57 - 57) =     11.76966  eV     1   --> A              
     e( 58 - 58) =     11.93824  eV     1   --> A              
     e( 59 - 59) =     12.03284  eV     1   --> A              
     e( 60 - 60) =     12.46742  eV     1   --> A              

 **************************************************************************

 **************************************************************************

                    xk=(   0.05000,   0.00000,   0.00000  )

     Band symmetry, C_1 (1)     point group:

     e(  1 -  1) =    -36.65506  eV     1   --> A              
     e(  2 -  2) =    -36.65445  eV     1   --> A              
     e(  3 -  3) =    -36.65315  eV     1   --> A              
     e(  4 -  4) =    -36.65294  eV     1   --> A              
     e(  5 -  5) =    -36.63907  eV     1   --> A              
     e(  6 -  6) =    -36.63867  eV     1   --> A              
     e(  7 -  7) =    -36.62962  eV     1   --> A              
     e(  8 -  8) =    -36.62924  eV     1   --> A              
     e(  9 -  9) =    -36.62540  eV     1   --> A              
     e( 10 - 10) =    -36.62456  eV     1   --> A              
     e( 11 - 11) =    -24.66876  eV     1   --> A              
     e( 12 - 12) =    -24.66223  eV     1   --> A              
     e( 13 - 13) =    -24.65857  eV     1   --> A              
     e( 14 - 14) =    -24.65782  eV     1   --> A              
     e( 15 - 15) =    -24.65040  eV     1   --> A              
     e( 16 - 16) =    -24.64640  eV     1   --> A              
     e( 17 - 17) =    -24.63697  eV     1   --> A              
     e( 18 - 18) =    -24.63684  eV     1   --> A              
     e( 19 - 19) =    -24.63603  eV     1   --> A              
     e( 20 - 20) =    -24.63277  eV     1   --> A              
     e( 21 - 21) =    -12.52120  eV     1   --> A              
     e( 22 - 22) =    -11.09237  eV     1   --> A              
     e( 23 - 23) =     -7.04952  eV     1   --> A              
     e( 24 - 24) =     -5.80346  eV     1   --> A              
     e( 25 - 25) =     -3.39528  eV     1   --> A              
     e( 26 - 26) =     -3.03749  eV     1   --> A              
     e( 27 - 27) =     -2.89845  eV     1   --> A              
     e( 28 - 28) =     -1.67714  eV     1   --> A              
     e( 29 - 29) =     -1.48981  eV     1   --> A              
     e( 30 - 30) =     -0.97473  eV     1   --> A              
     e( 31 - 31) =      1.57537  eV     1   --> A              
     e( 32 - 32) =      2.75630  eV     1   --> A              
     e( 33 - 33) =      3.28431  eV     1   --> A              
     e( 34 - 34) =      3.65426  eV     1   --> A              
     e( 35 - 35) =      3.72282  eV     1   --> A              
     e( 36 - 36) =      4.44763  eV     1   --> A              
     e( 37 - 37) =      4.58503  eV     1   --> A              
     e( 38 - 38) =      4.60426  eV     1   --> A              
     e( 39 - 39) =      5.08944  eV     1   --> A              
     e( 40 - 40) =      5.11167  eV     1   --> A              
     e( 41 - 41) =      5.53449  eV     1   --> A              
     e( 42 - 42) =      6.32717  eV     1   --> A              
     e( 43 - 43) =      7.05054  eV     1   --> A              
     e( 44 - 44) =      7.36030  eV     1   --> A              
     e( 45 - 45) =      7.44092  eV     1   --> A              
     e( 46 - 46) =      8.24807  eV     1   --> A              
     e( 47 - 47) =      8.37868  eV     1   --> A              
     e( 48 - 48) =      9.37686  eV     1   --> A              
     e( 49 - 49) =      9.40396  eV     1   --> A              
     e( 50 - 50) =      9.66265  eV     1   --> A              
     e( 51 - 51) =      9.91155  eV     1   --> A              
     e( 52 - 52) =      9.97035  eV     1   --> A              
     e( 53 - 53) =     10.16412  eV     1   --> A              
     e( 54 - 54) =     10.66911  eV     1   --> A              
     e( 55 - 55) =     11.33617  eV     1   --> A              
     e( 56 - 56) =     11.55190  eV     1   --> A              
     e( 57 - 57) =     11.75534  eV     1   --> A              
     e( 58 - 58) =     11.89710  eV     1   --> A              
     e( 59 - 59) =     11.96977  eV     1   --> A              
     e( 60 - 60) =     12.39110  eV     1   --> A              

 **************************************************************************

 **************************************************************************

                    xk=(   0.06000,   0.00000,   0.00000  )

     Band symmetry, C_1 (1)     point group:

     e(  1 -  1) =    -36.65505  eV     1   --> A              
     e(  2 -  2) =    -36.65444  eV     1   --> A              
     e(  3 -  3) =    -36.65316  eV     1   --> A              
     e(  4 -  4) =    -36.65294  eV     1   --> A              
     e(  5 -  5) =    -36.63907  eV     1   --> A              
     e(  6 -  6) =    -36.63867  eV     1   --> A              
     e(  7 -  7) =    -36.62962  eV     1   --> A              
     e(  8 -  8) =    -36.62925  eV     1   --> A              
     e(  9 -  9) =    -36.62539  eV     1   --> A              
     e( 10 - 10) =    -36.62456  eV     1   --> A              
     e( 11 - 11) =    -24.66873  eV     1   --> A              
     e( 12 - 12) =    -24.66223  eV     1   --> A              
     e( 13 - 13) =    -24.65858  eV     1   --> A              
     e( 14 - 14) =    -24.65784  eV     1   --> A              
     e( 15 - 15) =    -24.65038  eV     1   --> A              
     e( 16 - 16) =    -24.64641  eV     1   --> A              
     e( 17 - 17) =    -24.63699  eV     1   --> A              
     e( 18 - 18) =    -24.63686  eV     1   --> A              
     e( 19 - 19) =    -24.63600  eV     1   --> A              
     e( 20 - 20) =    -24.63276  eV     1   --> A              
     e( 21 - 21) =    -12.51400  eV     1   --> A              
     e( 22 - 22) =    -11.08771  eV     1   --> A              
     e( 23 - 23) =     -7.07016  eV     1   --> A              
     e( 24 - 24) =     -5.81949  eV     1   --> A              
     e( 25 - 25) =     -3.40588  eV     1   --> A              
     e( 26 - 26) =     -3.03394  eV     1   --> A              
     e( 27 - 27) =     -2.88362  eV     1   --> A              
     e( 28 - 28) =     -1.68086  eV     1   --> A              
     e( 29 - 29) =     -1.45681  eV     1   --> A              
     e( 30 - 30) =     -0.97684  eV     1   --> A              
     e( 31 - 31) =      1.57000  eV     1   --> A              
     e( 32 - 32) =      2.78723  eV     1   --> A              
     e( 33 - 33) =      3.26126  eV     1   --> A              
     e( 34 - 34) =      3.61160  eV     1   --> A              
     e( 35 - 35) =      3.72750  eV     1   --> A              
     e( 36 - 36) =      4.45505  eV     1   --> A              
     e( 37 - 37) =      4.57808  eV     1   --> A              
     e( 38 - 38) =      4.58418  eV     1   --> A              
     e( 39 - 39) =      5.08616  eV     1   --> A              
     e( 40 - 40) =      5.08667  eV     1   --> A              
     e( 41 - 41) =      5.52651  eV     1   --> A              
     e( 42 - 42) =      6.33028  eV     1   --> A              
     e( 43 - 43) =      7.05600  eV     1   --> A              
     e( 44 - 44) =      7.33562  eV     1   --> A              
     e( 45 - 45) =      7.40656  eV     1   --> A              
     e( 46 - 46) =      8.32526  eV     1   --> A              
     e( 47 - 47) =      8.43694  eV     1   --> A              
     e( 48 - 48) =      9.38604  eV     1   --> A              
     e( 49 - 49) =      9.46180  eV     1   --> A              
     e( 50 - 50) =      9.67568  eV     1   --> A              
     e( 51 - 51) =      9.86039  eV     1   --> A              
     e( 52 - 52) =     10.05425  eV     1   --> A              
     e( 53 - 53) =     10.17492  eV     1   --> A              
     e( 54 - 54) =     10.66543  eV     1   --> A              
     e( 55 - 55) =     11.29427  eV     1   --> A              
     e( 56 - 56) =     11.59907  eV     1   --> A              
     e( 57 - 57) =     11.73238  eV     1   --> A              
     e( 58 - 58) =     11.87798  eV     1   --> A              
     e( 59 - 59) =     11.89651  eV     1   --> A              
     e( 60 - 60) =     12.29312  eV     1   --> A              

 **************************************************************************

 **************************************************************************

                    xk=(   0.07000,   0.00000,   0.00000  )

     Band symmetry, C_1 (1)     point group:

     e(  1 -  1) =    -36.65503  eV     1   --> A              
     e(  2 -  2) =    -36.65442  eV     1   --> A              
     e(  3 -  3) =    -36.65316  eV     1   --> A              
     e(  4 -  4) =    -36.65295  eV     1   --> A              
     e(  5 -  5) =    -36.63907  eV     1   --> A              
     e(  6 -  6) =    -36.63867  eV     1   --> A              
     e(  7 -  7) =    -36.62963  eV     1   --> A              
     e(  8 -  8) =    -36.62925  eV     1   --> A              
     e(  9 -  9) =    -36.62538  eV     1   --> A              
     e( 10 - 10) =    -36.62456  eV     1   --> A              
     e( 11 - 11) =    -24.66869  eV     1   --> A              
     e( 12 - 12) =    -24.66223  eV     1   --> A              
     e( 13 - 13) =    -24.65859  eV     1   --> A              
     e( 14 - 14) =    -24.65786  eV     1   --> A              
     e( 15 - 15) =    -24.65037  eV     1   --> A              
     e( 16 - 16) =    -24.64643  eV     1   --> A              
     e( 17 - 17) =    -24.63702  eV     1   --> A              
     e( 18 - 18) =    -24.63688  eV     1   --> A              
     e( 19 - 19) =    -24.63597  eV     1   --> A              
     e( 20 - 20) =    -24.63275  eV     1   --> A              
     e( 21 - 21) =    -12.50551  eV     1   --> A              
     e( 22 - 22) =    -11.08225  eV     1   --> A              
     e( 23 - 23) =     -7.09421  eV     1   --> A              
     e( 24 - 24) =     -5.83849  eV     1   --> A              
     e( 25 - 25) =     -3.41747  eV     1   --> A              
     e( 26 - 26) =     -3.02907  eV     1   --> A              
     e( 27 - 27) =     -2.86686  eV     1   --> A              
     e( 28 - 28) =     -1.68212  eV     1   --> A              
     e( 29 - 29) =     -1.42169  eV     1   --> A              
     e( 30 - 30) =     -0.97943  eV     1   --> A              
     e( 31 - 31) =      1.56382  eV     1   --> A              
     e( 32 - 32) =      2.82298  eV     1   --> A              
     e( 33 - 33) =      3.23217  eV     1   --> A              
     e( 34 - 34) =      3.56189  eV     1   --> A              
     e( 35 - 35) =      3.73458  eV     1   --> A              
     e( 36 - 36) =      4.46283  eV     1   --> A              
     e( 37 - 37) =      4.54863  eV     1   --> A              
     e( 38 - 38) =      4.58245  eV     1   --> A              
     e( 39 - 39) =      5.05670  eV     1   --> A              
     e( 40 - 40) =      5.08397  eV     1   --> A              
     e( 41 - 41) =      5.52175  eV     1   --> A              
     e( 42 - 42) =      6.33435  eV     1   --> A              
     e( 43 - 43) =      7.06253  eV     1   --> A              
     e( 44 - 44) =      7.30854  eV     1   --> A              
     e( 45 - 45) =      7.37010  eV     1   --> A              
     e( 46 - 46) =      8.41216  eV     1   --> A              
     e( 47 - 47) =      8.50387  eV     1   --> A              
     e( 48 - 48) =      9.39685  eV     1   --> A              
     e( 49 - 49) =      9.52904  eV     1   --> A              
     e( 50 - 50) =      9.69134  eV     1   --> A              
     e( 51 - 51) =      9.80692  eV     1   --> A              
     e( 52 - 52) =     10.14682  eV     1   --> A              
     e( 53 - 53) =     10.18664  eV     1   --> A              
     e( 54 - 54) =     10.64639  eV     1   --> A              
     e( 55 - 55) =     11.25886  eV     1   --> A              
     e( 56 - 56) =     11.63666  eV     1   --> A              
     e( 57 - 57) =     11.70326  eV     1   --> A              
     e( 58 - 58) =     11.82340  eV     1   --> A              
     e( 59 - 59) =     11.87238  eV     1   --> A              
     e( 60 - 60) =     12.19794  eV     1   --> A              

 **************************************************************************

 **************************************************************************

                    xk=(   0.08000,   0.00000,   0.00000  )

     Band symmetry, C_1 (1)     point group:

     e(  1 -  1) =    -36.65501  eV     1   --> A              
     e(  2 -  2) =    -36.65441  eV     1   --> A              
     e(  3 -  3) =    -36.65317  eV     1   --> A              
     e(  4 -  4) =    -36.65295  eV     1   --> A              
     e(  5 -  5) =    -36.63907  eV     1   --> A              
     e(  6 -  6) =    -36.63867  eV     1   --> A              
     e(  7 -  7) =    -36.62963  eV     1   --> A              
     e(  8 -  8) =    -36.62926  eV     1   --> A              
     e(  9 -  9) =    -36.62537  eV     1   --> A              
     e( 10 - 10) =    -36.62455  eV     1   --> A              
     e( 11 - 11) =    -24.66864  eV     1   --> A              
     e( 12 - 12) =    -24.66223  eV     1   --> A              
     e( 13 - 13) =    -24.65861  eV     1   --> A              
     e( 14 - 14) =    -24.65789  eV     1   --> A              
     e( 15 - 15) =    -24.65035  eV     1   --> A              
     e( 16 - 16) =    -24.64644  eV     1   --> A              
     e( 17 - 17) =    -24.63704  eV     1   --> A              
     e( 18 - 18) =    -24.63691  eV     1   --> A              
     e( 19 - 19) =    -24.63593  eV     1   --> A              
     e( 20 - 20) =    -24.63274  eV     1   --> A              
     e( 21 - 21) =    -12.49571  eV     1   --> A              
     e( 22 - 22) =    -11.07597  eV     1   --> A              
     e( 23 - 23) =     -7.12151  eV     1   --> A              
     e( 24 - 24) =     -5.86048  eV     1   --> A              
     e( 25 - 25) =     -3.42970  eV     1   --> A              
     e( 26 - 26) =     -3.02277  eV     1   --> A              
     e( 27 - 27) =     -2.84835  eV     1   --> A              
     e( 28 - 28) =     -1.68104  eV     1   --> A              
     e( 29 - 29) =     -1.38464  eV     1   --> A              
     e( 30 - 30) =     -0.98253  eV     1   --> A              
     e( 31 - 31) =      1.55692  eV     1   --> A              
     e( 32 - 32) =      2.86312  eV     1   --> A              
     e( 33 - 33) =      3.19643  eV     1   --> A              
     e( 34 - 34) =      3.50677  eV     1   --> A              
     e( 35 - 35) =      3.74322  eV     1   --> A              
     e( 36 - 36) =      4.46764  eV     1   --> A              
     e( 37 - 37) =      4.51945  eV     1   --> A              
     e( 38 - 38) =      4.57956  eV     1   --> A              
     e( 39 - 39) =      5.02365  eV     1   --> A              
     e( 40 - 40) =      5.08180  eV     1   --> A              
     e( 41 - 41) =      5.52171  eV     1   --> A              
     e( 42 - 42) =      6.33955  eV     1   --> A              
     e( 43 - 43) =      7.07016  eV     1   --> A              
     e( 44 - 44) =      7.27660  eV     1   --> A              
     e( 45 - 45) =      7.33608  eV     1   --> A              
     e( 46 - 46) =      8.50656  eV     1   --> A              
     e( 47 - 47) =      8.57911  eV     1   --> A              
     e( 48 - 48) =      9.40924  eV     1   --> A              
     e( 49 - 49) =      9.60460  eV     1   --> A              
     e( 50 - 50) =      9.70905  eV     1   --> A              
     e( 51 - 51) =      9.75337  eV     1   --> A              
     e( 52 - 52) =     10.19948  eV     1   --> A              
     e( 53 - 53) =     10.24457  eV     1   --> A              
     e( 54 - 54) =     10.60916  eV     1   --> A              
     e( 55 - 55) =     11.23566  eV     1   --> A              
     e( 56 - 56) =     11.63041  eV     1   --> A              
     e( 57 - 57) =     11.66808  eV     1   --> A              
     e( 58 - 58) =     11.78476  eV     1   --> A              
     e( 59 - 59) =     11.87218  eV     1   --> A              
     e( 60 - 60) =     12.11971  eV     1   --> A              

 **************************************************************************

 **************************************************************************

                    xk=(   0.09000,   0.00000,   0.00000  )

     Band symmetry, C_1 (1)     point group:

     e(  1 -  1) =    -36.65499  eV     1   --> A              
     e(  2 -  2) =    -36.65439  eV     1   --> A              
     e(  3 -  3) =    -36.65317  eV     1   --> A              
     e(  4 -  4) =    -36.65296  eV     1   --> A              
     e(  5 -  5) =    -36.63906  eV     1   --> A              
     e(  6 -  6) =    -36.63867  eV     1   --> A              
     e(  7 -  7) =    -36.62963  eV     1   --> A              
     e(  8 -  8) =    -36.62927  eV     1   --> A              
     e(  9 -  9) =    -36.62535  eV     1   --> A              
     e( 10 - 10) =    -36.62454  eV     1   --> A              
     e( 11 - 11) =    -24.66860  eV     1   --> A              
     e( 12 - 12) =    -24.66223  eV     1   --> A              
     e( 13 - 13) =    -24.65862  eV     1   --> A              
     e( 14 - 14) =    -24.65791  eV     1   --> A              
     e( 15 - 15) =    -24.65034  eV     1   --> A              
     e( 16 - 16) =    -24.64646  eV     1   --> A              
     e( 17 - 17) =    -24.63707  eV     1   --> A              
     e( 18 - 18) =    -24.63694  eV     1   --> A              
     e( 19 - 19) =    -24.63589  eV     1   --> A              
     e( 20 - 20) =    -24.63272  eV     1   --> A              
     e( 21 - 21) =    -12.48462  eV     1   --> A              
     e( 22 - 22) =    -11.06895  eV     1   --> A              
     e( 23 - 23) =     -7.15189  eV     1   --> A              
     e( 24 - 24) =     -5.88546  eV     1   --> A              
     e( 25 - 25) =     -3.44216  eV     1   --> A              
     e( 26 - 26) =     -3.01493  eV     1   --> A              
     e( 27 - 27) =     -2.82824  eV     1   --> A              
     e( 28 - 28) =     -1.67772  eV     1   --> A              
     e( 29 - 29) =     -1.34587  eV     1   --> A              
     e( 30 - 30) =     -0.98621  eV     1   --> A              
     e( 31 - 31) =      1.54941  eV     1   --> A              
     e( 32 - 32) =      2.90707  eV     1   --> A              
     e( 33 - 33) =      3.15360  eV     1   --> A              
     e( 34 - 34) =      3.44725  eV     1   --> A              
     e( 35 - 35) =      3.75311  eV     1   --> A              
     e( 36 - 36) =      4.45415  eV     1   --> A              
     e( 37 - 37) =      4.50607  eV     1   --> A              
     e( 38 - 38) =      4.57519  eV     1   --> A              
     e( 39 - 39) =      4.98768  eV     1   --> A              
     e( 40 - 40) =      5.08052  eV     1   --> A              
     e( 41 - 41) =      5.52771  eV     1   --> A              
     e( 42 - 42) =      6.34603  eV     1   --> A              
     e( 43 - 43) =      7.07893  eV     1   --> A              
     e( 44 - 44) =      7.23699  eV     1   --> A              
     e( 45 - 45) =      7.30914  eV     1   --> A              
     e( 46 - 46) =      8.60486  eV     1   --> A              
     e( 47 - 47) =      8.66344  eV     1   --> A              
     e( 48 - 48) =      9.42313  eV     1   --> A              
     e( 49 - 49) =      9.68712  eV     1   --> A              
     e( 50 - 50) =      9.69436  eV     1   --> A              
     e( 51 - 51) =      9.73585  eV     1   --> A              
     e( 52 - 52) =     10.21359  eV     1   --> A              
     e( 53 - 53) =     10.33723  eV     1   --> A              
     e( 54 - 54) =     10.56296  eV     1   --> A              
     e( 55 - 55) =     11.22221  eV     1   --> A              
     e( 56 - 56) =     11.55921  eV     1   --> A              
     e( 57 - 57) =     11.62650  eV     1   --> A              
     e( 58 - 58) =     11.80119  eV     1   --> A              
     e( 59 - 59) =     11.87243  eV     1   --> A              
     e( 60 - 60) =     12.06888  eV     1   --> A              

 **************************************************************************

 **************************************************************************

                    xk=(   0.10000,   0.00000,   0.00000  )

     Band symmetry, C_1 (1)     point group:

     e(  1 -  1) =    -36.65496  eV     1   --> A              
     e(  2 -  2) =    -36.65437  eV     1   --> A              
     e(  3 -  3) =    -36.65318  eV     1   --> A              
     e(  4 -  4) =    -36.65297  eV     1   --> A              
     e(  5 -  5) =    -36.63906  eV     1   --> A              
     e(  6 -  6) =    -36.63867  eV     1   --> A              
     e(  7 -  7) =    -36.62964  eV     1   --> A              
     e(  8 -  8) =    -36.62928  eV     1   --> A              
     e(  9 -  9) =    -36.62534  eV     1   --> A              
     e( 10 - 10) =    -36.62453  eV     1   --> A              
     e( 11 - 11) =    -24.66854  eV     1   --> A              
     e( 12 - 12) =    -24.66223  eV     1   --> A              
     e( 13 - 13) =    -24.65864  eV     1   --> A              
     e( 14 - 14) =    -24.65795  eV     1   --> A              
     e( 15 - 15) =    -24.65032  eV     1   --> A              
     e( 16 - 16) =    -24.64647  eV     1   --> A              
     e( 17 - 17) =    -24.63711  eV     1   --> A              
     e( 18 - 18) =    -24.63698  eV     1   --> A              
     e( 19 - 19) =    -24.63584  eV     1   --> A              
     e( 20 - 20) =    -24.63271  eV     1   --> A              
     e( 21 - 21) =    -12.47225  eV     1   --> A              
     e( 22 - 22) =    -11.06120  eV     1   --> A              
     e( 23 - 23) =     -7.18516  eV     1   --> A              
     e( 24 - 24) =     -5.91345  eV     1   --> A              
     e( 25 - 25) =     -3.45449  eV     1   --> A              
     e( 26 - 26) =     -3.00548  eV     1   --> A              
     e( 27 - 27) =     -2.80665  eV     1   --> A              
     e( 28 - 28) =     -1.67230  eV     1   --> A              
     e( 29 - 29) =     -1.30556  eV     1   --> A              
     e( 30 - 30) =     -0.99051  eV     1   --> A              
     e( 31 - 31) =      1.54139  eV     1   --> A              
     e( 32 - 32) =      2.95410  eV     1   --> A              
     e( 33 - 33) =      3.10346  eV     1   --> A              
     e( 34 - 34) =      3.38406  eV     1   --> A              
     e( 35 - 35) =      3.76408  eV     1   --> A              
     e( 36 - 36) =      4.41797  eV     1   --> A              
     e( 37 - 37) =      4.51311  eV     1   --> A              
     e( 38 - 38) =      4.56906  eV     1   --> A              
     e( 39 - 39) =      4.94964  eV     1   --> A              
     e( 40 - 40) =      5.08056  eV     1   --> A              
     e( 41 - 41) =      5.54081  eV     1   --> A              
     e( 42 - 42) =      6.35394  eV     1   --> A              
     e( 43 - 43) =      7.08887  eV     1   --> A              
     e( 44 - 44) =      7.19084  eV     1   --> A              
     e( 45 - 45) =      7.28970  eV     1   --> A              
     e( 46 - 46) =      8.70124  eV     1   --> A              
     e( 47 - 47) =      8.75949  eV     1   --> A              
     e( 48 - 48) =      9.43844  eV     1   --> A              
     e( 49 - 49) =      9.64281  eV     1   --> A              
     e( 50 - 50) =      9.76071  eV     1   --> A              
     e( 51 - 51) =      9.77461  eV     1   --> A              
     e( 52 - 52) =     10.22908  eV     1   --> A              
     e( 53 - 53) =     10.37644  eV     1   --> A              
     e( 54 - 54) =     10.56028  eV     1   --> A              
     e( 55 - 55) =     11.20596  eV     1   --> A              
     e( 56 - 56) =     11.46330  eV     1   --> A              
     e( 57 - 57) =     11.58592  eV     1   --> A              
     e( 58 - 58) =     11.83054  eV     1   --> A              
     e( 59 - 59) =     11.87194  eV     1   --> A              
     e( 60 - 60) =     12.04856  eV     1   --> A              

 **************************************************************************

 **************************************************************************

                    xk=(   0.11000,   0.00000,   0.00000  )

     Band symmetry, C_1 (1)     point group:

     e(  1 -  1) =    -36.65493  eV     1   --> A              
     e(  2 -  2) =    -36.65434  eV     1   --> A              
     e(  3 -  3) =    -36.65318  eV     1   --> A              
     e(  4 -  4) =    -36.65298  eV     1   --> A              
     e(  5 -  5) =    -36.63906  eV     1   --> A              
     e(  6 -  6) =    -36.63867  eV     1   --> A              
     e(  7 -  7) =    -36.62965  eV     1   --> A              
     e(  8 -  8) =    -36.62929  eV     1   --> A              
     e(  9 -  9) =    -36.62532  eV     1   --> A              
     e( 10 - 10) =    -36.62453  eV     1   --> A              
     e( 11 - 11) =    -24.66848  eV     1   --> A              
     e( 12 - 12) =    -24.66223  eV     1   --> A              
     e( 13 - 13) =    -24.65866  eV     1   --> A              
     e( 14 - 14) =    -24.65798  eV     1   --> A              
     e( 15 - 15) =    -24.65029  eV     1   --> A              
     e( 16 - 16) =    -24.64649  eV     1   --> A              
     e( 17 - 17) =    -24.63714  eV     1   --> A              
     e( 18 - 18) =    -24.63701  eV     1   --> A              
     e( 19 - 19) =    -24.63579  eV     1   --> A              
     e( 20 - 20) =    -24.63269  eV     1   --> A              
     e( 21 - 21) =    -12.45862  eV     1   --> A              
     e( 22 - 22) =    -11.05278  eV     1   --> A              
     e( 23 - 23) =     -7.22112  eV     1   --> A              
     e( 24 - 24) =     -5.94445  eV     1   --> A              
     e( 25 - 25) =     -3.46632  eV     1   --> A              
     e( 26 - 26) =     -2.99438  eV     1   --> A              
     e( 27 - 27) =     -2.78369  eV     1   --> A              
     e( 28 - 28) =     -1.66489  eV     1   --> A              
     e( 29 - 29) =     -1.26389  eV     1   --> A              
     e( 30 - 30) =     -0.99548  eV     1   --> A              
     e( 31 - 31) =      1.53299  eV     1   --> A              
     e( 32 - 32) =      3.00331  eV     1   --> A              
     e( 33 - 33) =      3.04614  eV     1   --> A              
     e( 34 - 34) =      3.31768  eV     1   --> A              
     e( 35 - 35) =      3.77596  eV     1   --> A              
     e( 36 - 36) =      4.37334  eV     1   --> A              
     e( 37 - 37) =      4.52649  eV     1   --> A              
     e( 38 - 38) =      4.56094  eV     1   --> A              
     e( 39 - 39) =      4.91063  eV     1   --> A              
     e( 40 - 40) =      5.08233  eV     1   --> A              
     e( 41 - 41) =      5.56184  eV     1   --> A              
     e( 42 - 42) =      6.36341  eV     1   --> A              
     e( 43 - 43) =      7.10003  eV     1   --> A              
     e( 44 - 44) =      7.14114  eV     1   --> A              
     e( 45 - 45) =      7.27605  eV     1   --> A              
     e( 46 - 46) =      8.79127  eV     1   --> A              
     e( 47 - 47) =      8.86781  eV     1   --> A              
     e( 48 - 48) =      9.45509  eV     1   --> A              
     e( 49 - 49) =      9.59348  eV     1   --> A              
     e( 50 - 50) =      9.79131  eV     1   --> A              
     e( 51 - 51) =      9.86316  eV     1   --> A              
     e( 52 - 52) =     10.24605  eV     1   --> A              
     e( 53 - 53) =     10.32458  eV     1   --> A              
     e( 54 - 54) =     10.64612  eV     1   --> A              
     e( 55 - 55) =     11.16892  eV     1   --> A              
     e( 56 - 56) =     11.36074  eV     1   --> A              
     e( 57 - 57) =     11.56275  eV     1   --> A              
     e( 58 - 58) =     11.84985  eV     1   --> A              
     e( 59 - 59) =     11.87295  eV     1   --> A              
     e( 60 - 60) =     12.05291  eV     1   --> A              

 **************************************************************************

 **************************************************************************

                    xk=(   0.12000,   0.00000,   0.00000  )

     Band symmetry, C_1 (1)     point group:

     e(  1 -  1) =    -36.65490  eV     1   --> A              
     e(  2 -  2) =    -36.65432  eV     1   --> A              
     e(  3 -  3) =    -36.65319  eV     1   --> A              
     e(  4 -  4) =    -36.65299  eV     1   --> A              
     e(  5 -  5) =    -36.63905  eV     1   --> A              
     e(  6 -  6) =    -36.63867  eV     1   --> A              
     e(  7 -  7) =    -36.62965  eV     1   --> A              
     e(  8 -  8) =    -36.62930  eV     1   --> A              
     e(  9 -  9) =    -36.62531  eV     1   --> A              
     e( 10 - 10) =    -36.62452  eV     1   --> A              
     e( 11 - 11) =    -24.66841  eV     1   --> A              
     e( 12 - 12) =    -24.66224  eV     1   --> A              
     e( 13 - 13) =    -24.65868  eV     1   --> A              
     e( 14 - 14) =    -24.65802  eV     1   --> A              
     e( 15 - 15) =    -24.65027  eV     1   --> A              
     e( 16 - 16) =    -24.64651  eV     1   --> A              
     e( 17 - 17) =    -24.63718  eV     1   --> A              
     e( 18 - 18) =    -24.63705  eV     1   --> A              
     e( 19 - 19) =    -24.63574  eV     1   --> A              
     e( 20 - 20) =    -24.63267  eV     1   --> A              
     e( 21 - 21) =    -12.44372  eV     1   --> A              
     e( 22 - 22) =    -11.04373  eV     1   --> A              
     e( 23 - 23) =     -7.25953  eV     1   --> A              
     e( 24 - 24) =     -5.97840  eV     1   --> A              
     e( 25 - 25) =     -3.47733  eV     1   --> A              
     e( 26 - 26) =     -2.98161  eV     1   --> A              
     e( 27 - 27) =     -2.75947  eV     1   --> A              
     e( 28 - 28) =     -1.65561  eV     1   --> A              
     e( 29 - 29) =     -1.22104  eV     1   --> A              
     e( 30 - 30) =     -1.00120  eV     1   --> A              
     e( 31 - 31) =      1.52435  eV     1   --> A              
     e( 32 - 32) =      2.98209  eV     1   --> A              
     e( 33 - 33) =      3.05356  eV     1   --> A              
     e( 34 - 34) =      3.24837  eV     1   --> A              
     e( 35 - 35) =      3.78859  eV     1   --> A              
     e( 36 - 36) =      4.32424  eV     1   --> A              
     e( 37 - 37) =      4.54244  eV     1   --> A              
     e( 38 - 38) =      4.55067  eV     1   --> A              
     e( 39 - 39) =      4.87205  eV     1   --> A              
     e( 40 - 40) =      5.08615  eV     1   --> A              
     e( 41 - 41) =      5.59136  eV     1   --> A              
     e( 42 - 42) =      6.37455  eV     1   --> A              
     e( 43 - 43) =      7.09004  eV     1   --> A              
     e( 44 - 44) =      7.11245  eV     1   --> A              
     e( 45 - 45) =      7.26708  eV     1   --> A              
     e( 46 - 46) =      8.87428  eV     1   --> A              
     e( 47 - 47) =      8.98397  eV     1   --> A              
     e( 48 - 48) =      9.47297  eV     1   --> A              
     e( 49 - 49) =      9.55010  eV     1   --> A              
     e( 50 - 50) =      9.82749  eV     1   --> A              
     e( 51 - 51) =      9.94110  eV     1   --> A              
     e( 52 - 52) =     10.25337  eV     1   --> A              
     e( 53 - 53) =     10.26458  eV     1   --> A              
     e( 54 - 54) =     10.76253  eV     1   --> A              
     e( 55 - 55) =     11.10240  eV     1   --> A              
     e( 56 - 56) =     11.25659  eV     1   --> A              
     e( 57 - 57) =     11.56714  eV     1   --> A              
     e( 58 - 58) =     11.84305  eV     1   --> A              
     e( 59 - 59) =     11.87771  eV     1   --> A              
     e( 60 - 60) =     12.07407  eV     1   --> A              

 **************************************************************************

 **************************************************************************

                    xk=(   0.13000,   0.00000,   0.00000  )

     Band symmetry, C_1 (1)     point group:

     e(  1 -  1) =    -36.65487  eV     1   --> A              
     e(  2 -  2) =    -36.65430  eV     1   --> A              
     e(  3 -  3) =    -36.65320  eV     1   --> A              
     e(  4 -  4) =    -36.65300  eV     1   --> A              
     e(  5 -  5) =    -36.63905  eV     1   --> A              
     e(  6 -  6) =    -36.63868  eV     1   --> A              
     e(  7 -  7) =    -36.62966  eV     1   --> A              
     e(  8 -  8) =    -36.62931  eV     1   --> A              
     e(  9 -  9) =    -36.62529  eV     1   --> A              
     e( 10 - 10) =    -36.62451  eV     1   --> A              
     e( 11 - 11) =    -24.66834  eV     1   --> A              
     e( 12 - 12) =    -24.66224  eV     1   --> A              
     e( 13 - 13) =    -24.65870  eV     1   --> A              
     e( 14 - 14) =    -24.65806  eV     1   --> A              
     e( 15 - 15) =    -24.65024  eV     1   --> A              
     e( 16 - 16) =    -24.64654  eV     1   --> A              
     e( 17 - 17) =    -24.63722  eV     1   --> A              
     e( 18 - 18) =    -24.63709  eV     1   --> A              
     e( 19 - 19) =    -24.63569  eV     1   --> A              
     e( 20 - 20) =    -24.63265  eV     1   --> A              
     e( 21 - 21) =    -12.42755  eV     1   --> A              
     e( 22 - 22) =    -11.03402  eV     1   --> A              
     e( 23 - 23) =     -7.30016  eV     1   --> A              
     e( 24 - 24) =     -6.01525  eV     1   --> A              
     e( 25 - 25) =     -3.48721  eV     1   --> A              
     e( 26 - 26) =     -2.96713  eV     1   --> A              
     e( 27 - 27) =     -2.73407  eV     1   --> A              
     e( 28 - 28) =     -1.64459  eV     1   --> A              
     e( 29 - 29) =     -1.17717  eV     1   --> A              
     e( 30 - 30) =     -1.00770  eV     1   --> A              
     e( 31 - 31) =      1.51562  eV     1   --> A              
     e( 32 - 32) =      2.91199  eV     1   --> A              
     e( 33 - 33) =      3.10340  eV     1   --> A              
     e( 34 - 34) =      3.17628  eV     1   --> A              
     e( 35 - 35) =      3.80174  eV     1   --> A              
     e( 36 - 36) =      4.27164  eV     1   --> A              
     e( 37 - 37) =      4.53821  eV     1   --> A              
     e( 38 - 38) =      4.56014  eV     1   --> A              
     e( 39 - 39) =      4.83560  eV     1   --> A              
     e( 40 - 40) =      5.09229  eV     1   --> A              
     e( 41 - 41) =      5.62968  eV     1   --> A              
     e( 42 - 42) =      6.38745  eV     1   --> A              
     e( 43 - 43) =      7.03888  eV     1   --> A              
     e( 44 - 44) =      7.12615  eV     1   --> A              
     e( 45 - 45) =      7.26226  eV     1   --> A              
     e( 46 - 46) =      8.94774  eV     1   --> A              
     e( 47 - 47) =      9.10299  eV     1   --> A              
     e( 48 - 48) =      9.49193  eV     1   --> A              
     e( 49 - 49) =      9.51743  eV     1   --> A              
     e( 50 - 50) =      9.87022  eV     1   --> A              
     e( 51 - 51) =      9.96867  eV     1   --> A              
     e( 52 - 52) =     10.22614  eV     1   --> A              
     e( 53 - 53) =     10.28482  eV     1   --> A              
     e( 54 - 54) =     10.88014  eV     1   --> A              
     e( 55 - 55) =     11.01996  eV     1   --> A              
     e( 56 - 56) =     11.15317  eV     1   --> A              
     e( 57 - 57) =     11.59347  eV     1   --> A              
     e( 58 - 58) =     11.79473  eV     1   --> A              
     e( 59 - 59) =     11.88681  eV     1   --> A              
     e( 60 - 60) =     12.06965  eV     1   --> A              

 **************************************************************************

 **************************************************************************

                    xk=(   0.14000,   0.00000,   0.00000  )

     Band symmetry, C_1 (1)     point group:

     e(  1 -  1) =    -36.65484  eV     1   --> A              
     e(  2 -  2) =    -36.65427  eV     1   --> A              
     e(  3 -  3) =    -36.65320  eV     1   --> A              
     e(  4 -  4) =    -36.65301  eV     1   --> A              
     e(  5 -  5) =    -36.63904  eV     1   --> A              
     e(  6 -  6) =    -36.63868  eV     1   --> A              
     e(  7 -  7) =    -36.62966  eV     1   --> A              
     e(  8 -  8) =    -36.62932  eV     1   --> A              
     e(  9 -  9) =    -36.62526  eV     1   --> A              
     e( 10 - 10) =    -36.62450  eV     1   --> A              
     e( 11 - 11) =    -24.66827  eV     1   --> A              
     e( 12 - 12) =    -24.66224  eV     1   --> A              
     e( 13 - 13) =    -24.65872  eV     1   --> A              
     e( 14 - 14) =    -24.65810  eV     1   --> A              
     e( 15 - 15) =    -24.65021  eV     1   --> A              
     e( 16 - 16) =    -24.64656  eV     1   --> A              
     e( 17 - 17) =    -24.63726  eV     1   --> A              
     e( 18 - 18) =    -24.63713  eV     1   --> A              
     e( 19 - 19) =    -24.63563  eV     1   --> A              
     e( 20 - 20) =    -24.63263  eV     1   --> A              
     e( 21 - 21) =    -12.41013  eV     1   --> A              
     e( 22 - 22) =    -11.02381  eV     1   --> A              
     e( 23 - 23) =     -7.34280  eV     1   --> A              
     e( 24 - 24) =     -6.05496  eV     1   --> A              
     e( 25 - 25) =     -3.49571  eV     1   --> A              
     e( 26 - 26) =     -2.95095  eV     1   --> A              
     e( 27 - 27) =     -2.70757  eV     1   --> A              
     e( 28 - 28) =     -1.63192  eV     1   --> A              
     e( 29 - 29) =     -1.13244  eV     1   --> A              
     e( 30 - 30) =     -1.01505  eV     1   --> A              
     e( 31 - 31) =      1.50696  eV     1   --> A              
     e( 32 - 32) =      2.83670  eV     1   --> A              
     e( 33 - 33) =      3.10146  eV     1   --> A              
     e( 34 - 34) =      3.15109  eV     1   --> A              
     e( 35 - 35) =      3.81513  eV     1   --> A              
     e( 36 - 36) =      4.21599  eV     1   --> A              
     e( 37 - 37) =      4.52364  eV     1   --> A              
     e( 38 - 38) =      4.57932  eV     1   --> A              
     e( 39 - 39) =      4.80335  eV     1   --> A              
     e( 40 - 40) =      5.10095  eV     1   --> A              
     e( 41 - 41) =      5.67690  eV     1   --> A              
     e( 42 - 42) =      6.40218  eV     1   --> A              
     e( 43 - 43) =      6.98853  eV     1   --> A              
     e( 44 - 44) =      7.14118  eV     1   --> A              
     e( 45 - 45) =      7.26130  eV     1   --> A              
     e( 46 - 46) =      9.00538  eV     1   --> A              
     e( 47 - 47) =      9.21941  eV     1   --> A              
     e( 48 - 48) =      9.50383  eV     1   --> A              
     e( 49 - 49) =      9.51168  eV     1   --> A              
     e( 50 - 50) =      9.91169  eV     1   --> A              
     e( 51 - 51) =      9.92083  eV     1   --> A              
     e( 52 - 52) =     10.28289  eV     1   --> A              
     e( 53 - 53) =     10.30694  eV     1   --> A              
     e( 54 - 54) =     10.87851  eV     1   --> A              
     e( 55 - 55) =     11.04718  eV     1   --> A              
     e( 56 - 56) =     11.05198  eV     1   --> A              
     e( 57 - 57) =     11.63096  eV     1   --> A              
     e( 58 - 58) =     11.71006  eV     1   --> A              
     e( 59 - 59) =     11.90008  eV     1   --> A              
     e( 60 - 60) =     12.03452  eV     1   --> A              

 **************************************************************************

 **************************************************************************

                    xk=(   0.15000,   0.00000,   0.00000  )

     Band symmetry, C_1 (1)     point group:

     e(  1 -  1) =    -36.65480  eV     1   --> A              
     e(  2 -  2) =    -36.65424  eV     1   --> A              
     e(  3 -  3) =    -36.65321  eV     1   --> A              
     e(  4 -  4) =    -36.65302  eV     1   --> A              
     e(  5 -  5) =    -36.63904  eV     1   --> A              
     e(  6 -  6) =    -36.63868  eV     1   --> A              
     e(  7 -  7) =    -36.62967  eV     1   --> A              
     e(  8 -  8) =    -36.62933  eV     1   --> A              
     e(  9 -  9) =    -36.62524  eV     1   --> A              
     e( 10 - 10) =    -36.62449  eV     1   --> A              
     e( 11 - 11) =    -24.66819  eV     1   --> A              
     e( 12 - 12) =    -24.66224  eV     1   --> A              
     e( 13 - 13) =    -24.65874  eV     1   --> A              
     e( 14 - 14) =    -24.65814  eV     1   --> A              
     e( 15 - 15) =    -24.65018  eV     1   --> A              
     e( 16 - 16) =    -24.64659  eV     1   --> A              
     e( 17 - 17) =    -24.63730  eV     1   --> A              
     e( 18 - 18) =    -24.63718  eV     1   --> A              
     e( 19 - 19) =    -24.63557  eV     1   --> A              
     e( 20 - 20) =    -24.63261  eV     1   --> A              
     e( 21 - 21) =    -12.39147  eV     1   --> A              
     e( 22 - 22) =    -11.01313  eV     1   --> A              
     e( 23 - 23) =     -7.38719  eV     1   --> A              
     e( 24 - 24) =     -6.09744  eV     1   --> A              
     e( 25 - 25) =     -3.50259  eV     1   --> A              
     e( 26 - 26) =     -2.93306  eV     1   --> A              
     e( 27 - 27) =     -2.68005  eV     1   --> A              
     e( 28 - 28) =     -1.61772  eV     1   --> A              
     e( 29 - 29) =     -1.08697  eV     1   --> A              
     e( 30 - 30) =     -1.02329  eV     1   --> A              
     e( 31 - 31) =      1.49852  eV     1   --> A              
     e( 32 - 32) =      2.75710  eV     1   --> A              
     e( 33 - 33) =      3.02399  eV     1   --> A              
     e( 34 - 34) =      3.19453  eV     1   --> A              
     e( 35 - 35) =      3.82841  eV     1   --> A              
     e( 36 - 36) =      4.15754  eV     1   --> A              
     e( 37 - 37) =      4.50721  eV     1   --> A              
     e( 38 - 38) =      4.59995  eV     1   --> A              
     e( 39 - 39) =      4.77764  eV     1   --> A              
     e( 40 - 40) =      5.11225  eV     1   --> A              
     e( 41 - 41) =      5.73295  eV     1   --> A              
     e( 42 - 42) =      6.41876  eV     1   --> A              
     e( 43 - 43) =      6.93968  eV     1   --> A              
     e( 44 - 44) =      7.15756  eV     1   --> A              
     e( 45 - 45) =      7.26399  eV     1   --> A              
     e( 46 - 46) =      9.03905  eV     1   --> A              
     e( 47 - 47) =      9.32426  eV     1   --> A              
     e( 48 - 48) =      9.52251  eV     1   --> A              
     e( 49 - 49) =      9.53145  eV     1   --> A              
     e( 50 - 50) =      9.81491  eV     1   --> A              
     e( 51 - 51) =      9.98083  eV     1   --> A              
     e( 52 - 52) =     10.33126  eV     1   --> A              
     e( 53 - 53) =     10.38143  eV     1   --> A              
     e( 54 - 54) =     10.77041  eV     1   --> A              
     e( 55 - 55) =     10.95426  eV     1   --> A              
     e( 56 - 56) =     11.17614  eV     1   --> A              
     e( 57 - 57) =     11.60811  eV     1   --> A              
     e( 58 - 58) =     11.67121  eV     1   --> A              
     e( 59 - 59) =     11.91754  eV     1   --> A              
     e( 60 - 60) =     11.99719  eV     1   --> A              

 **************************************************************************

 **************************************************************************

                    xk=(   0.16000,   0.00000,   0.00000  )

     Band symmetry, C_1 (1)     point group:

     e(  1 -  1) =    -36.65476  eV     1   --> A              
     e(  2 -  2) =    -36.65421  eV     1   --> A              
     e(  3 -  3) =    -36.65322  eV     1   --> A              
     e(  4 -  4) =    -36.65303  eV     1   --> A              
     e(  5 -  5) =    -36.63904  eV     1   --> A              
     e(  6 -  6) =    -36.63868  eV     1   --> A              
     e(  7 -  7) =    -36.62968  eV     1   --> A              
     e(  8 -  8) =    -36.62935  eV     1   --> A              
     e(  9 -  9) =    -36.62522  eV     1   --> A              
     e( 10 - 10) =    -36.62448  eV     1   --> A              
     e( 11 - 11) =    -24.66810  eV     1   --> A              
     e( 12 - 12) =    -24.66225  eV     1   --> A              
     e( 13 - 13) =    -24.65877  eV     1   --> A              
     e( 14 - 14) =    -24.65819  eV     1   --> A              
     e( 15 - 15) =    -24.65015  eV     1   --> A              
     e( 16 - 16) =    -24.64662  eV     1   --> A              
     e( 17 - 17) =    -24.63735  eV     1   --> A              
     e( 18 - 18) =    -24.63722  eV     1   --> A              
     e( 19 - 19) =    -24.63551  eV     1   --> A              
     e( 20 - 20) =    -24.63259  eV     1   --> A              
     e( 21 - 21) =    -12.37161  eV     1   --> A              
     e( 22 - 22) =    -11.00200  eV     1   --> A              
     e( 23 - 23) =     -7.43307  eV     1   --> A              
     e( 24 - 24) =     -6.14260  eV     1   --> A              
     e( 25 - 25) =     -3.50766  eV     1   --> A              
     e( 26 - 26) =     -2.91348  eV     1   --> A              
     e( 27 - 27) =     -2.65160  eV     1   --> A              
     e( 28 - 28) =     -1.60210  eV     1   --> A              
     e( 29 - 29) =     -1.04091  eV     1   --> A              
     e( 30 - 30) =     -1.03247  eV     1   --> A              
     e( 31 - 31) =      1.49049  eV     1   --> A              
     e( 32 - 32) =      2.67406  eV     1   --> A              
     e( 33 - 33) =      2.94401  eV     1   --> A              
     e( 34 - 34) =      3.23133  eV     1   --> A              
     e( 35 - 35) =      3.84109  eV     1   --> A              
     e( 36 - 36) =      4.09649  eV     1   --> A              
     e( 37 - 37) =      4.48938  eV     1   --> A              
     e( 38 - 38) =      4.62236  eV     1   --> A              
     e( 39 - 39) =      4.76076  eV     1   --> A              
     e( 40 - 40) =      5.12623  eV     1   --> A              
     e( 41 - 41) =      5.79759  eV     1   --> A              
     e( 42 - 42) =      6.43721  eV     1   --> A              
     e( 43 - 43) =      6.89282  eV     1   --> A              
     e( 44 - 44) =      7.17533  eV     1   --> A              
     e( 45 - 45) =      7.27014  eV     1   --> A              
     e( 46 - 46) =      9.04448  eV     1   --> A              
     e( 47 - 47) =      9.40701  eV     1   --> A              
     e( 48 - 48) =      9.54800  eV     1   --> A              
     e( 49 - 49) =      9.58363  eV     1   --> A              
     e( 50 - 50) =      9.70987  eV     1   --> A              
     e( 51 - 51) =     10.05180  eV     1   --> A              
     e( 52 - 52) =     10.35824  eV     1   --> A              
     e( 53 - 53) =     10.49297  eV     1   --> A              
     e( 54 - 54) =     10.65290  eV     1   --> A              
     e( 55 - 55) =     10.86117  eV     1   --> A              
     e( 56 - 56) =     11.31311  eV     1   --> A              
     e( 57 - 57) =     11.50078  eV     1   --> A              
     e( 58 - 58) =     11.70812  eV     1   --> A              
     e( 59 - 59) =     11.94008  eV     1   --> A              
     e( 60 - 60) =     11.94277  eV     1   --> A              

 **************************************************************************

 **************************************************************************

                    xk=(   0.17000,   0.00000,   0.00000  )

     Band symmetry, C_1 (1)     point group:

     e(  1 -  1) =    -36.65472  eV     1   --> A              
     e(  2 -  2) =    -36.65418  eV     1   --> A              
     e(  3 -  3) =    -36.65323  eV     1   --> A              
     e(  4 -  4) =    -36.65304  eV     1   --> A              
     e(  5 -  5) =    -36.63903  eV     1   --> A              
     e(  6 -  6) =    -36.63868  eV     1   --> A              
     e(  7 -  7) =    -36.62969  eV     1   --> A              
     e(  8 -  8) =    -36.62936  eV     1   --> A              
     e(  9 -  9) =    -36.62520  eV     1   --> A              
     e( 10 - 10) =    -36.62447  eV     1   --> A              
     e( 11 - 11) =    -24.66802  eV     1   --> A              
     e( 12 - 12) =    -24.66226  eV     1   --> A              
     e( 13 - 13) =    -24.65879  eV     1   --> A              
     e( 14 - 14) =    -24.65824  eV     1   --> A              
     e( 15 - 15) =    -24.65012  eV     1   --> A              
     e( 16 - 16) =    -24.64665  eV     1   --> A              
     e( 17 - 17) =    -24.63739  eV     1   --> A              
     e( 18 - 18) =    -24.63727  eV     1   --> A              
     e( 19 - 19) =    -24.63544  eV     1   --> A              
     e( 20 - 20) =    -24.63258  eV     1   --> A              
     e( 21 - 21) =    -12.35052  eV     1   --> A              
     e( 22 - 22) =    -10.99051  eV     1   --> A              
     e( 23 - 23) =     -7.48019  eV     1   --> A              
     e( 24 - 24) =     -6.19031  eV     1   --> A              
     e( 25 - 25) =     -3.51078  eV     1   --> A              
     e( 26 - 26) =     -2.89222  eV     1   --> A              
     e( 27 - 27) =     -2.62230  eV     1   --> A              
     e( 28 - 28) =     -1.58517  eV     1   --> A              
     e( 29 - 29) =     -1.04263  eV     1   --> A              
     e( 30 - 30) =     -0.99436  eV     1   --> A              
     e( 31 - 31) =      1.48302  eV     1   --> A              
     e( 32 - 32) =      2.58836  eV     1   --> A              
     e( 33 - 33) =      2.86174  eV     1   --> A              
     e( 34 - 34) =      3.25903  eV     1   --> A              
     e( 35 - 35) =      3.85257  eV     1   --> A              
     e( 36 - 36) =      4.03299  eV     1   --> A              
     e( 37 - 37) =      4.47080  eV     1   --> A              
     e( 38 - 38) =      4.64762  eV     1   --> A              
     e( 39 - 39) =      4.75444  eV     1   --> A              
     e( 40 - 40) =      5.14290  eV     1   --> A              
     e( 41 - 41) =      5.87050  eV     1   --> A              
     e( 42 - 42) =      6.45750  eV     1   --> A              
     e( 43 - 43) =      6.84838  eV     1   --> A              
     e( 44 - 44) =      7.19451  eV     1   --> A              
     e( 45 - 45) =      7.27958  eV     1   --> A              
     e( 46 - 46) =      9.02577  eV     1   --> A              
     e( 47 - 47) =      9.47147  eV     1   --> A              
     e( 48 - 48) =      9.53618  eV     1   --> A              
     e( 49 - 49) =      9.62977  eV     1   --> A              
     e( 50 - 50) =      9.67405  eV     1   --> A              
     e( 51 - 51) =     10.13506  eV     1   --> A              
     e( 52 - 52) =     10.38866  eV     1   --> A              
     e( 53 - 53) =     10.52078  eV     1   --> A              
     e( 54 - 54) =     10.62253  eV     1   --> A              
     e( 55 - 55) =     10.77396  eV     1   --> A              
     e( 56 - 56) =     11.39357  eV     1   --> A              
     e( 57 - 57) =     11.45033  eV     1   --> A              
     e( 58 - 58) =     11.73652  eV     1   --> A              
     e( 59 - 59) =     11.87038  eV     1   --> A              
     e( 60 - 60) =     11.96992  eV     1   --> A              

 **************************************************************************

 **************************************************************************

                    xk=(   0.18000,   0.00000,   0.00000  )

     Band symmetry, C_1 (1)     point group:

     e(  1 -  1) =    -36.65468  eV     1   --> A              
     e(  2 -  2) =    -36.65415  eV     1   --> A              
     e(  3 -  3) =    -36.65324  eV     1   --> A              
     e(  4 -  4) =    -36.65306  eV     1   --> A              
     e(  5 -  5) =    -36.63903  eV     1   --> A              
     e(  6 -  6) =    -36.63868  eV     1   --> A              
     e(  7 -  7) =    -36.62970  eV     1   --> A              
     e(  8 -  8) =    -36.62938  eV     1   --> A              
     e(  9 -  9) =    -36.62517  eV     1   --> A              
     e( 10 - 10) =    -36.62446  eV     1   --> A              
     e( 11 - 11) =    -24.66792  eV     1   --> A              
     e( 12 - 12) =    -24.66227  eV     1   --> A              
     e( 13 - 13) =    -24.65882  eV     1   --> A              
     e( 14 - 14) =    -24.65828  eV     1   --> A              
     e( 15 - 15) =    -24.65008  eV     1   --> A              
     e( 16 - 16) =    -24.64668  eV     1   --> A              
     e( 17 - 17) =    -24.63744  eV     1   --> A              
     e( 18 - 18) =    -24.63731  eV     1   --> A              
     e( 19 - 19) =    -24.63537  eV     1   --> A              
     e( 20 - 20) =    -24.63256  eV     1   --> A              
     e( 21 - 21) =    -12.32823  eV     1   --> A              
     e( 22 - 22) =    -10.97874  eV     1   --> A              
     e( 23 - 23) =     -7.52830  eV     1   --> A              
     e( 24 - 24) =     -6.24043  eV     1   --> A              
     e( 25 - 25) =     -3.51183  eV     1   --> A              
     e( 26 - 26) =     -2.86929  eV     1   --> A              
     e( 27 - 27) =     -2.59223  eV     1   --> A              
     e( 28 - 28) =     -1.56704  eV     1   --> A              
     e( 29 - 29) =     -1.05377  eV     1   --> A              
     e( 30 - 30) =     -0.94745  eV     1   --> A              
     e( 31 - 31) =      1.47629  eV     1   --> A              
     e( 32 - 32) =      2.50070  eV     1   --> A              
     e( 33 - 33) =      2.77746  eV     1   --> A              
     e( 34 - 34) =      3.27537  eV     1   --> A              
     e( 35 - 35) =      3.86206  eV     1   --> A              
     e( 36 - 36) =      3.96714  eV     1   --> A              
     e( 37 - 37) =      4.45236  eV     1   --> A              
     e( 38 - 38) =      4.67786  eV     1   --> A              
     e( 39 - 39) =      4.75907  eV     1   --> A              
     e( 40 - 40) =      5.16222  eV     1   --> A              
     e( 41 - 41) =      5.95127  eV     1   --> A              
     e( 42 - 42) =      6.47959  eV     1   --> A              
     e( 43 - 43) =      6.80668  eV     1   --> A              
     e( 44 - 44) =      7.21511  eV     1   --> A              
     e( 45 - 45) =      7.29214  eV     1   --> A              
     e( 46 - 46) =      8.99074  eV     1   --> A              
     e( 47 - 47) =      9.44720  eV     1   --> A              
     e( 48 - 48) =      9.52811  eV     1   --> A              
     e( 49 - 49) =      9.62619  eV     1   --> A              
     e( 50 - 50) =      9.76956  eV     1   --> A              
     e( 51 - 51) =     10.23127  eV     1   --> A              
[...]
     e( 11 - 11) =    -24.66881  eV     1   --> A'             
     e( 12 - 12) =    -24.66226  eV     1   --> A'             
     e( 13 - 13) =    -24.65855  eV     1   --> A''            
     e( 14 - 14) =    -24.65779  eV     1   --> A''            
     e( 15 - 15) =    -24.65039  eV     1   --> A'             
     e( 16 - 16) =    -24.64638  eV     1   --> A'             
     e( 17 - 17) =    -24.63693  eV     1   --> A''            
     e( 18 - 18) =    -24.63679  eV     1   --> A''            
     e( 19 - 19) =    -24.63608  eV     1   --> A'             
     e( 20 - 20) =    -24.63281  eV     1   --> A'             
     e( 21 - 21) =    -12.52825  eV     1   --> A'             
     e( 22 - 22) =    -11.09852  eV     1   --> A'             
     e( 23 - 23) =     -7.03288  eV     1   --> A'             
     e( 24 - 24) =     -5.79258  eV     1   --> A'             
     e( 25 - 25) =     -3.38714  eV     1   --> A'             
     e( 26 - 26) =     -3.01466  eV     1   --> A'             
     e( 27 - 27) =     -2.92364  eV     1   --> A''            
     e( 28 - 28) =     -1.60348  eV     1   --> A''            
     e( 29 - 29) =     -1.57469  eV     1   --> A'             
     e( 30 - 30) =     -0.97692  eV     1   --> A'             
     e( 31 - 31) =      1.58055  eV     1   --> A'             
     e( 32 - 32) =      2.71326  eV     1   --> A'             
     e( 33 - 33) =      3.28787  eV     1   --> A'             
     e( 34 - 34) =      3.70192  eV     1   --> A''            
     e( 35 - 35) =      3.70830  eV     1   --> A'             
     e( 36 - 36) =      4.44147  eV     1   --> A'             
     e( 37 - 37) =      4.58364  eV     1   --> A'             
     e( 38 - 38) =      4.61676  eV     1   --> A''            
     e( 39 - 39) =      5.09113  eV     1   --> A'             
     e( 40 - 40) =      5.15765  eV     1   --> A'             
     e( 41 - 41) =      5.57439  eV     1   --> A'             
     e( 42 - 42) =      6.32780  eV     1   --> A'             
     e( 43 - 43) =      7.04442  eV     1   --> A'             
     e( 44 - 44) =      7.38393  eV     1   --> A'             
     e( 45 - 45) =      7.50357  eV     1   --> A''            
     e( 46 - 46) =      8.15227  eV     1   --> A''            
     e( 47 - 47) =      8.32145  eV     1   --> A'             
     e( 48 - 48) =      9.30539  eV     1   --> A'             
     e( 49 - 49) =      9.40924  eV     1   --> A'             
     e( 50 - 50) =      9.58336  eV     1   --> A'             
     e( 51 - 51) =      9.85946  eV     1   --> A''            
     e( 52 - 52) =     10.08643  eV     1   --> A''            
     e( 53 - 53) =     10.13813  eV     1   --> A'             
     e( 54 - 54) =     10.60578  eV     1   --> A'             
     e( 55 - 55) =     11.20997  eV     1   --> A'             
     e( 56 - 56) =     11.43826  eV     1   --> A'             
     e( 57 - 57) =     11.86006  eV     1   --> A'             
     e( 58 - 58) =     11.97565  eV     1   --> A'             
     e( 59 - 59) =     12.18949  eV     1   --> A'             
     e( 60 - 60) =     12.24110  eV     1   --> A''            

 **************************************************************************

 **************************************************************************

                    xk=(   0.00000,   0.02901,   0.00000  )

     Band symmetry, C_s (m)     point group:

     e(  1 -  1) =    -36.65510  eV     1   --> A'             
     e(  2 -  2) =    -36.65448  eV     1   --> A'             
     e(  3 -  3) =    -36.65315  eV     1   --> A''            
     e(  4 -  4) =    -36.65293  eV     1   --> A''            
     e(  5 -  5) =    -36.63907  eV     1   --> A'             
     e(  6 -  6) =    -36.63866  eV     1   --> A'             
     e(  7 -  7) =    -36.62961  eV     1   --> A''            
     e(  8 -  8) =    -36.62923  eV     1   --> A''            
     e(  9 -  9) =    -36.62542  eV     1   --> A'             
     e( 10 - 10) =    -36.62458  eV     1   --> A'             
     e( 11 - 11) =    -24.66882  eV     1   --> A'             
     e( 12 - 12) =    -24.66225  eV     1   --> A'             
     e( 13 - 13) =    -24.65855  eV     1   --> A''            
     e( 14 - 14) =    -24.65778  eV     1   --> A''            
     e( 15 - 15) =    -24.65041  eV     1   --> A'             
     e( 16 - 16) =    -24.64638  eV     1   --> A'             
     e( 17 - 17) =    -24.63693  eV     1   --> A''            
     e( 18 - 18) =    -24.63679  eV     1   --> A''            
     e( 19 - 19) =    -24.63609  eV     1   --> A'             
     e( 20 - 20) =    -24.63280  eV     1   --> A'             
     e( 21 - 21) =    -12.53232  eV     1   --> A'             
     e( 22 - 22) =    -11.10055  eV     1   --> A'             
     e( 23 - 23) =     -7.01931  eV     1   --> A'             
     e( 24 - 24) =     -5.78150  eV     1   --> A'             
     e( 25 - 25) =     -3.37917  eV     1   --> A'             
     e( 26 - 26) =     -3.02681  eV     1   --> A'             
     e( 27 - 27) =     -2.92879  eV     1   --> A''            
     e( 28 - 28) =     -1.60758  eV     1   --> A''            
     e( 29 - 29) =     -1.59554  eV     1   --> A'             
     e( 30 - 30) =     -0.97397  eV     1   --> A'             
     e( 31 - 31) =      1.58380  eV     1   --> A'             
     e( 32 - 32) =      2.70049  eV     1   --> A'             
     e( 33 - 33) =      3.30658  eV     1   --> A'             
     e( 34 - 34) =      3.70370  eV     1   --> A'             
     e( 35 - 35) =      3.73265  eV     1   --> A''            
     e( 36 - 36) =      4.43630  eV     1   --> A'             
     e( 37 - 37) =      4.58423  eV     1   --> A'             
     e( 38 - 38) =      4.63838  eV     1   --> A''            
     e( 39 - 39) =      5.09371  eV     1   --> A'             
     e( 40 - 40) =      5.16336  eV     1   --> A'             
     e( 41 - 41) =      5.57158  eV     1   --> A'             
     e( 42 - 42) =      6.32497  eV     1   --> A'             
     e( 43 - 43) =      7.04173  eV     1   --> A'             
     e( 44 - 44) =      7.40458  eV     1   --> A'             
     e( 45 - 45) =      7.51216  eV     1   --> A''            
     e( 46 - 46) =      8.11185  eV     1   --> A''            
     e( 47 - 47) =      8.28631  eV     1   --> A'             
     e( 48 - 48) =      9.29319  eV     1   --> A'             
     e( 49 - 49) =      9.38446  eV     1   --> A'             
     e( 50 - 50) =      9.60446  eV     1   --> A'             
     e( 51 - 51) =      9.81464  eV     1   --> A''            
     e( 52 - 52) =     10.08046  eV     1   --> A''            
     e( 53 - 53) =     10.12960  eV     1   --> A'             
     e( 54 - 54) =     10.62468  eV     1   --> A'             
     e( 55 - 55) =     11.27838  eV     1   --> A'             
     e( 56 - 56) =     11.42867  eV     1   --> A'             
     e( 57 - 57) =     11.87901  eV     1   --> A'             
     e( 58 - 58) =     12.03428  eV     1   --> A'             
     e( 59 - 59) =     12.21205  eV     1   --> A'             
     e( 60 - 60) =     12.23539  eV     1   --> A''            

 **************************************************************************

 **************************************************************************

                    xk=(   0.00000,   0.01934,   0.00000  )

     Band symmetry, C_s (m)     point group:

     e(  1 -  1) =    -36.65510  eV     1   --> A'             
     e(  2 -  2) =    -36.65448  eV     1   --> A'             
     e(  3 -  3) =    -36.65315  eV     1   --> A''            
     e(  4 -  4) =    -36.65293  eV     1   --> A''            
     e(  5 -  5) =    -36.63907  eV     1   --> A'             
     e(  6 -  6) =    -36.63867  eV     1   --> A'             
     e(  7 -  7) =    -36.62961  eV     1   --> A''            
     e(  8 -  8) =    -36.62923  eV     1   --> A''            
     e(  9 -  9) =    -36.62542  eV     1   --> A'             
     e( 10 - 10) =    -36.62457  eV     1   --> A'             
     e( 11 - 11) =    -24.66883  eV     1   --> A'             
     e( 12 - 12) =    -24.66224  eV     1   --> A'             
     e( 13 - 13) =    -24.65855  eV     1   --> A''            
     e( 14 - 14) =    -24.65778  eV     1   --> A''            
     e( 15 - 15) =    -24.65042  eV     1   --> A'             
     e( 16 - 16) =    -24.64638  eV     1   --> A'             
     e( 17 - 17) =    -24.63692  eV     1   --> A''            
     e( 18 - 18) =    -24.63679  eV     1   --> A''            
     e( 19 - 19) =    -24.63609  eV     1   --> A'             
     e( 20 - 20) =    -24.63280  eV     1   --> A'             
     e( 21 - 21) =    -12.53525  eV     1   --> A'             
     e( 22 - 22) =    -11.10201  eV     1   --> A'             
     e( 23 - 23) =     -7.00952  eV     1   --> A'             
     e( 24 - 24) =     -5.77359  eV     1   --> A'             
     e( 25 - 25) =     -3.37321  eV     1   --> A'             
     e( 26 - 26) =     -3.03557  eV     1   --> A'             
     e( 27 - 27) =     -2.93247  eV     1   --> A''            
     e( 28 - 28) =     -1.61070  eV     1   --> A'             
     e( 29 - 29) =     -1.61051  eV     1   --> A''            
     e( 30 - 30) =     -0.97188  eV     1   --> A'             
     e( 31 - 31) =      1.58616  eV     1   --> A'             
     e( 32 - 32) =      2.69129  eV     1   --> A'             
     e( 33 - 33) =      3.31993  eV     1   --> A'             
     e( 34 - 34) =      3.70038  eV     1   --> A'             
     e( 35 - 35) =      3.75499  eV     1   --> A''            
     e( 36 - 36) =      4.43262  eV     1   --> A'             
     e( 37 - 37) =      4.58455  eV     1   --> A'             
     e( 38 - 38) =      4.65392  eV     1   --> A''            
     e( 39 - 39) =      5.09569  eV     1   --> A'             
     e( 40 - 40) =      5.16752  eV     1   --> A'             
     e( 41 - 41) =      5.56998  eV     1   --> A'             
     e( 42 - 42) =      6.32296  eV     1   --> A'             
     e( 43 - 43) =      7.03984  eV     1   --> A'             
     e( 44 - 44) =      7.41995  eV     1   --> A'             
     e( 45 - 45) =      7.51875  eV     1   --> A''            
     e( 46 - 46) =      8.08256  eV     1   --> A''            
     e( 47 - 47) =      8.26066  eV     1   --> A'             
     e( 48 - 48) =      9.28226  eV     1   --> A'             
     e( 49 - 49) =      9.36839  eV     1   --> A'             
     e( 50 - 50) =      9.62050  eV     1   --> A'             
     e( 51 - 51) =      9.78206  eV     1   --> A''            
     e( 52 - 52) =     10.07622  eV     1   --> A''            
     e( 53 - 53) =     10.12312  eV     1   --> A'             
     e( 54 - 54) =     10.63311  eV     1   --> A'             
     e( 55 - 55) =     11.35321  eV     1   --> A'             
     e( 56 - 56) =     11.41747  eV     1   --> A'             
     e( 57 - 57) =     11.84832  eV     1   --> A'             
     e( 58 - 58) =     12.08900  eV     1   --> A'             
     e( 59 - 59) =     12.23131  eV     1   --> A''            
     e( 60 - 60) =     12.26609  eV     1   --> A'             

 **************************************************************************

 **************************************************************************

                    xk=(   0.00000,   0.00967,   0.00000  )

     Band symmetry, C_s (m)     point group:

     e(  1 -  1) =    -36.65510  eV     1   --> A'             
     e(  2 -  2) =    -36.65447  eV     1   --> A'             
     e(  3 -  3) =    -36.65315  eV     1   --> A''            
     e(  4 -  4) =    -36.65293  eV     1   --> A''            
     e(  5 -  5) =    -36.63908  eV     1   --> A'             
     e(  6 -  6) =    -36.63867  eV     1   --> A'             
     e(  7 -  7) =    -36.62961  eV     1   --> A''            
     e(  8 -  8) =    -36.62923  eV     1   --> A''            
     e(  9 -  9) =    -36.62542  eV     1   --> A'             
     e( 10 - 10) =    -36.62457  eV     1   --> A'             
     e( 11 - 11) =    -24.66884  eV     1   --> A'             
     e( 12 - 12) =    -24.66223  eV     1   --> A'             
     e( 13 - 13) =    -24.65855  eV     1   --> A''            
     e( 14 - 14) =    -24.65778  eV     1   --> A''            
     e( 15 - 15) =    -24.65042  eV     1   --> A'             
     e( 16 - 16) =    -24.64638  eV     1   --> A'             
     e( 17 - 17) =    -24.63692  eV     1   --> A''            
     e( 18 - 18) =    -24.63679  eV     1   --> A''            
     e( 19 - 19) =    -24.63610  eV     1   --> A'             
     e( 20 - 20) =    -24.63280  eV     1   --> A'             
     e( 21 - 21) =    -12.53701  eV     1   --> A'             
     e( 22 - 22) =    -11.10288  eV     1   --> A'             
     e( 23 - 23) =     -7.00361  eV     1   --> A'             
     e( 24 - 24) =     -5.76885  eV     1   --> A'             
     e( 25 - 25) =     -3.36952  eV     1   --> A'             
     e( 26 - 26) =     -3.04085  eV     1   --> A'             
     e( 27 - 27) =     -2.93468  eV     1   --> A''            
     e( 28 - 28) =     -1.61991  eV     1   --> A'             
     e( 29 - 29) =     -1.61228  eV     1   --> A''            
     e( 30 - 30) =     -0.97063  eV     1   --> A'             
     e( 31 - 31) =      1.58759  eV     1   --> A'             
     e( 32 - 32) =      2.68574  eV     1   --> A'             
     e( 33 - 33) =      3.32795  eV     1   --> A'             
     e( 34 - 34) =      3.69836  eV     1   --> A'             
     e( 35 - 35) =      3.76856  eV     1   --> A''            
     e( 36 - 36) =      4.43040  eV     1   --> A'             
     e( 37 - 37) =      4.58469  eV     1   --> A'             
     e( 38 - 38) =      4.66328  eV     1   --> A''            
     e( 39 - 39) =      5.09694  eV     1   --> A'             
     e( 40 - 40) =      5.17004  eV     1   --> A'             
     e( 41 - 41) =      5.56919  eV     1   --> A'             
     e( 42 - 42) =      6.32174  eV     1   --> A'             
     e( 43 - 43) =      7.03872  eV     1   --> A'             
     e( 44 - 44) =      7.42944  eV     1   --> A'             
     e( 45 - 45) =      7.52291  eV     1   --> A''            
     e( 46 - 46) =      8.06482  eV     1   --> A''            
     e( 47 - 47) =      8.24505  eV     1   --> A'             
     e( 48 - 48) =      9.27461  eV     1   --> A'             
     e( 49 - 49) =      9.35962  eV     1   --> A'             
     e( 50 - 50) =      9.63055  eV     1   --> A'             
     e( 51 - 51) =      9.76227  eV     1   --> A''            
     e( 52 - 52) =     10.07368  eV     1   --> A''            
     e( 53 - 53) =     10.11904  eV     1   --> A'             
     e( 54 - 54) =     10.63614  eV     1   --> A'             
     e( 55 - 55) =     11.40923  eV     1   --> A'             
     e( 56 - 56) =     11.41846  eV     1   --> A'             
     e( 57 - 57) =     11.80192  eV     1   --> A'             
     e( 58 - 58) =     12.12843  eV     1   --> A'             
     e( 59 - 59) =     12.22887  eV     1   --> A''            
     e( 60 - 60) =     12.31654  eV     1   --> A'             

 **************************************************************************

 **************************************************************************

                    xk=(   0.00000,   0.00000,   0.00000  )

     Band symmetry, C_s (m)     point group:

     e(  1 -  1) =    -36.65510  eV     1   --> A'             
     e(  2 -  2) =    -36.65448  eV     1   --> A'             
     e(  3 -  3) =    -36.65315  eV     1   --> A''            
     e(  4 -  4) =    -36.65293  eV     1   --> A''            
     e(  5 -  5) =    -36.63908  eV     1   --> A'             
     e(  6 -  6) =    -36.63867  eV     1   --> A'             
     e(  7 -  7) =    -36.62961  eV     1   --> A''            
     e(  8 -  8) =    -36.62923  eV     1   --> A''            
     e(  9 -  9) =    -36.62542  eV     1   --> A'             
     e( 10 - 10) =    -36.62457  eV     1   --> A'             
     e( 11 - 11) =    -24.66884  eV     1   --> A'             
     e( 12 - 12) =    -24.66223  eV     1   --> A'             
     e( 13 - 13) =    -24.65855  eV     1   --> A''            
     e( 14 - 14) =    -24.65778  eV     1   --> A''            
     e( 15 - 15) =    -24.65042  eV     1   --> A'             
     e( 16 - 16) =    -24.64638  eV     1   --> A'             
     e( 17 - 17) =    -24.63692  eV     1   --> A''            
     e( 18 - 18) =    -24.63679  eV     1   --> A''            
     e( 19 - 19) =    -24.63610  eV     1   --> A'             
     e( 20 - 20) =    -24.63280  eV     1   --> A'             
     e( 21 - 21) =    -12.53759  eV     1   --> A'             
     e( 22 - 22) =    -11.10319  eV     1   --> A'             
     e( 23 - 23) =     -7.00164  eV     1   --> A'             
     e( 24 - 24) =     -5.76727  eV     1   --> A'             
     e( 25 - 25) =     -3.36827  eV     1   --> A'             
     e( 26 - 26) =     -3.04261  eV     1   --> A'             
     e( 27 - 27) =     -2.93542  eV     1   --> A''            
     e( 28 - 28) =     -1.62300  eV     1   --> A'             
     e( 29 - 29) =     -1.61287  eV     1   --> A''            
     e( 30 - 30) =     -0.97021  eV     1   --> A'             
     e( 31 - 31) =      1.58806  eV     1   --> A'             
     e( 32 - 32) =      2.68388  eV     1   --> A'             
     e( 33 - 33) =      3.33061  eV     1   --> A'             
     e( 34 - 34) =      3.69768  eV     1   --> A'             
     e( 35 - 35) =      3.77310  eV     1   --> A''            
     e( 36 - 36) =      4.42966  eV     1   --> A'             
     e( 37 - 37) =      4.58473  eV     1   --> A'             
     e( 38 - 38) =      4.66641  eV     1   --> A''            
     e( 39 - 39) =      5.09737  eV     1   --> A'             
     e( 40 - 40) =      5.17088  eV     1   --> A'             
     e( 41 - 41) =      5.56896  eV     1   --> A'             
     e( 42 - 42) =      6.32134  eV     1   --> A'             
     e( 43 - 43) =      7.03835  eV     1   --> A'             
     e( 44 - 44) =      7.43265  eV     1   --> A'             
     e( 45 - 45) =      7.52433  eV     1   --> A''            
     e( 46 - 46) =      8.05887  eV     1   --> A''            
     e( 47 - 47) =      8.23981  eV     1   --> A'             
     e( 48 - 48) =      9.27186  eV     1   --> A'             
     e( 49 - 49) =      9.35685  eV     1   --> A'             
     e( 50 - 50) =      9.63397  eV     1   --> A'             
     e( 51 - 51) =      9.75563  eV     1   --> A''            
     e( 52 - 52) =     10.07283  eV     1   --> A''            
     e( 53 - 53) =     10.11765  eV     1   --> A'             
     e( 54 - 54) =     10.63682  eV     1   --> A'             
     e( 55 - 55) =     11.40625  eV     1   --> A'             
     e( 56 - 56) =     11.44692  eV     1   --> A'             
     e( 57 - 57) =     11.77872  eV     1   --> A'             
     e( 58 - 58) =     12.14295  eV     1   --> A'             
     e( 59 - 59) =     12.22805  eV     1   --> A''            
     e( 60 - 60) =     12.33606  eV     1   --> A'             

 **************************************************************************
 
     BANDS        :   2m 8.45s CPU   3m26.60s WALL

 
   This run was terminated on:   2:53:48  23Feb2021            

=------------------------------------------------------------------------------=
   JOB DONE.
=------------------------------------------------------------------------------=
