
     Program BANDS v.6.7MaX starts on 12Sep2021 at  8:55:28 

     This program is part of the open-source Quantum ESPRESSO suite
     for quantum simulation of materials; please cite
         "P. Giannozzi et al., J. Phys.:Condens. Matter 21 395502 (2009);
         "P. Giannozzi et al., J. Phys.:Condens. Matter 29 465901 (2017);
          URL http://www.quantum-espresso.org", 
     in publications or presentations arising from this work. More details at
     http://www.quantum-espresso.org/quote

     Parallel version (MPI), running on    20 processors

     MPI processes distributed on     1 nodes
     R & G space division:  proc/nbgrp/npool/nimage =      20

     Reading xml data from directory:

     ./work/GeTe-mono.save/
     Message from routine read_pp_mesh:
     mesh size missing, using the one in header
     Message from routine read_pp_mesh:
     mesh size missing, using the one in header

     IMPORTANT: XC functional enforced from input :
     Exchange-correlation= PBE
                           (   1   4   3   4   0   0   0)
     Any further DFT definition will be discarded
     Please, verify this is what you really want

 
     Parallelization info
     --------------------
     sticks:   dense  smooth     PW     G-vecs:    dense   smooth      PW
     Min         116      38     11                22746     4364     675
     Max         117      39     12                22761     4379     687
     Sum        2335     769    223               455125    87447   13657
 
     Reading collected, re-writing distributed wavefunctions
     high-symmetry point:  0.3333 0.5774 0.0000   x coordinate   0.0000
     high-symmetry point:  0.0000 0.5774 0.0000   x coordinate   0.3333
     high-symmetry point:  0.0000 0.0000 0.0000   x coordinate   0.9107
     high-symmetry point:  0.3333 0.5774 0.0000   x coordinate   1.5774

     Plottable bands (eV) written to file GeTe-mono.bands.gnu
     Bands written to file GeTe-mono.bands

 **************************************************************************

                    xk=(   0.33333,   0.57735,   0.00000  )

     point group C_3 (3)    
     there are  3 classes
     the character table:

       E     C3    C3^2 
A      1.00  1.00  1.00
E      1.00 -0.50 -0.50
E*     1.00 -0.50 -0.50
     imaginary part
A      0.00  0.00  0.00
E      0.00  0.87 -0.87
E*     0.00 -0.87  0.87

     the symmetry operations in each class and the name of the first element:

     E        1
                                                                 
     C3       2
                                                                 
     C3^2     3
                                                                 

     Band symmetry, C_3 (3)     point group:

     e(  1 -  1) =    -38.31619  eV     1   --> A              
     e(  2 -  2) =    -38.31566  eV     1   --> E              
     e(  3 -  4) =    -38.27365  eV     2   --> A              
     e(  3 -  4) =    -38.27365  eV     2   --> E              
     e(  5 -  5) =    -38.25440  eV     1   --> E*             
     e(  6 -  6) =    -26.13904  eV     1   --> E*             
     e(  7 -  7) =    -26.13580  eV     1   --> E              
     e(  8 -  8) =    -26.08702  eV     1   --> E*             
     e(  9 -  9) =    -26.08538  eV     1   --> E              
     e( 10 - 10) =    -26.05875  eV     1   --> A              
     e( 11 - 11) =    -12.20116  eV     1   --> E*             
     e( 12 - 12) =     -9.60502  eV     1   --> A              
     e( 13 - 13) =     -5.61650  eV     1   --> E              
     e( 14 - 14) =     -4.06420  eV     1   --> E*             
     e( 15 - 15) =     -3.47750  eV     1   --> A              
     e( 16 - 16) =     -0.07233  eV     1   --> E              
     e( 17 - 17) =      1.98341  eV     1   --> E*             
     e( 18 - 18) =      2.00197  eV     1   --> A              
     e( 19 - 19) =      5.22817  eV     1   --> E              
     e( 20 - 20) =      5.67115  eV     1   --> A              
     e( 21 - 21) =      6.07550  eV     1   --> E*             
     e( 22 - 22) =      6.53800  eV     1   --> E              
     e( 23 - 23) =      6.62171  eV     1   --> E*             
     e( 24 - 24) =      6.68586  eV     1   --> A              

 **************************************************************************

 **************************************************************************

                    xk=(   0.32667,   0.57735,   0.00000  )

     point group C_1 (1)    
     there are  1 classes
     the character table:

       E    
A      1.00

     the symmetry operations in each class and the name of the first element:

     E        1
                                                                 

     Band symmetry, C_1 (1)     point group:

     e(  1 -  1) =    -38.31620  eV     1   --> A              
     e(  2 -  2) =    -38.31565  eV     1   --> A              
     e(  3 -  4) =    -38.27366  eV     2   -->   2 A              
     e(  5 -  5) =    -38.25440  eV     1   --> A              
     e(  6 -  6) =    -26.13904  eV     1   --> A              
     e(  7 -  7) =    -26.13580  eV     1   --> A              
     e(  8 -  8) =    -26.08702  eV     1   --> A              
     e(  9 -  9) =    -26.08538  eV     1   --> A              
     e( 10 - 10) =    -26.05875  eV     1   --> A              
     e( 11 - 11) =    -12.20168  eV     1   --> A              
     e( 12 - 12) =     -9.60466  eV     1   --> A              
     e( 13 - 13) =     -5.61560  eV     1   --> A              
     e( 14 - 14) =     -4.06537  eV     1   --> A              
     e( 15 - 15) =     -3.47645  eV     1   --> A              
     e( 16 - 16) =     -0.07138  eV     1   --> A              
     e( 17 - 17) =      1.97280  eV     1   --> A              
     e( 18 - 18) =      2.01115  eV     1   --> A              
     e( 19 - 19) =      5.22939  eV     1   --> A              
     e( 20 - 20) =      5.66352  eV     1   --> A              
     e( 21 - 21) =      6.07226  eV     1   --> A              
     e( 22 - 22) =      6.53462  eV     1   --> A              
     e( 23 - 23) =      6.61277  eV     1   --> A              
     e( 24 - 24) =      6.68145  eV     1   --> A              

 **************************************************************************

 **************************************************************************

                    xk=(   0.32000,   0.57735,   0.00000  )

     Band symmetry, C_1 (1)     point group:

     e(  1 -  1) =    -38.31622  eV     1   --> A              
     e(  2 -  2) =    -38.31563  eV     1   --> A              
     e(  3 -  4) =    -38.27367  eV     2   -->   2 A              
     e(  5 -  5) =    -38.25440  eV     1   --> A              
     e(  6 -  6) =    -26.13905  eV     1   --> A              
     e(  7 -  7) =    -26.13580  eV     1   --> A              
     e(  8 -  8) =    -26.08702  eV     1   --> A              
     e(  9 -  9) =    -26.08538  eV     1   --> A              
     e( 10 - 10) =    -26.05876  eV     1   --> A              
     e( 11 - 11) =    -12.20313  eV     1   --> A              
     e( 12 - 12) =     -9.60362  eV     1   --> A              
     e( 13 - 13) =     -5.61288  eV     1   --> A              
     e( 14 - 14) =     -4.06874  eV     1   --> A              
     e( 15 - 15) =     -3.47346  eV     1   --> A              
     e( 16 - 16) =     -0.06850  eV     1   --> A              
     e( 17 - 17) =      1.95636  eV     1   --> A              
     e( 18 - 18) =      2.02318  eV     1   --> A              
     e( 19 - 19) =      5.23312  eV     1   --> A              
     e( 20 - 20) =      5.63885  eV     1   --> A              
     e( 21 - 21) =      6.06780  eV     1   --> A              
     e( 22 - 22) =      6.51268  eV     1   --> A              
     e( 23 - 23) =      6.60358  eV     1   --> A              
     e( 24 - 24) =      6.68328  eV     1   --> A              

 **************************************************************************

 **************************************************************************

                    xk=(   0.31333,   0.57735,   0.00000  )

     Band symmetry, C_1 (1)     point group:

     e(  1 -  1) =    -38.31626  eV     1   --> A              
     e(  2 -  2) =    -38.31560  eV     1   --> A              
     e(  3 -  3) =    -38.27369  eV     1   --> A              
     e(  4 -  4) =    -38.27358  eV     1   --> A              
     e(  5 -  5) =    -38.25441  eV     1   --> A              
     e(  6 -  6) =    -26.13907  eV     1   --> A              
     e(  7 -  7) =    -26.13578  eV     1   --> A              
     e(  8 -  8) =    -26.08703  eV     1   --> A              
     e(  9 -  9) =    -26.08537  eV     1   --> A              
     e( 10 - 10) =    -26.05876  eV     1   --> A              
     e( 11 - 11) =    -12.20548  eV     1   --> A              
     e( 12 - 12) =     -9.60198  eV     1   --> A              
     e( 13 - 13) =     -5.60835  eV     1   --> A              
     e( 14 - 14) =     -4.07406  eV     1   --> A              
     e( 15 - 15) =     -3.46878  eV     1   --> A              
     e( 16 - 16) =     -0.06370  eV     1   --> A              
     e( 17 - 17) =      1.93925  eV     1   --> A              
     e( 18 - 18) =      2.03279  eV     1   --> A              
     e( 19 - 19) =      5.23944  eV     1   --> A              
     e( 20 - 20) =      5.59671  eV     1   --> A              
     e( 21 - 21) =      6.06764  eV     1   --> A              
     e( 22 - 22) =      6.47790  eV     1   --> A              
     e( 23 - 23) =      6.58109  eV     1   --> A              
     e( 24 - 24) =      6.71654  eV     1   --> A              

 **************************************************************************

 **************************************************************************

                    xk=(   0.30667,   0.57735,   0.00000  )

     Band symmetry, C_1 (1)     point group:

     e(  1 -  1) =    -38.31630  eV     1   --> A              
     e(  2 -  2) =    -38.31556  eV     1   --> A              
     e(  3 -  3) =    -38.27370  eV     1   --> A              
     e(  4 -  4) =    -38.27356  eV     1   --> A              
     e(  5 -  5) =    -38.25441  eV     1   --> A              
     e(  6 -  6) =    -26.13909  eV     1   --> A              
     e(  7 -  7) =    -26.13576  eV     1   --> A              
     e(  8 -  8) =    -26.08703  eV     1   --> A              
     e(  9 -  9) =    -26.08536  eV     1   --> A              
     e( 10 - 10) =    -26.05876  eV     1   --> A              
     e( 11 - 11) =    -12.20865  eV     1   --> A              
     e( 12 - 12) =     -9.59979  eV     1   --> A              
     e( 13 - 13) =     -5.60203  eV     1   --> A              
     e( 14 - 14) =     -4.08104  eV     1   --> A              
     e( 15 - 15) =     -3.46271  eV     1   --> A              
     e( 16 - 16) =     -0.05697  eV     1   --> A              
     e( 17 - 17) =      1.92204  eV     1   --> A              
     e( 18 - 18) =      2.03928  eV     1   --> A              
     e( 19 - 19) =      5.24840  eV     1   --> A              
     e( 20 - 20) =      5.53961  eV     1   --> A              
     e( 21 - 21) =      6.07311  eV     1   --> A              
     e( 22 - 22) =      6.43950  eV     1   --> A              
     e( 23 - 23) =      6.55046  eV     1   --> A              
     e( 24 - 24) =      6.76869  eV     1   --> A              

 **************************************************************************

 **************************************************************************

                    xk=(   0.30000,   0.57735,   0.00000  )

     Band symmetry, C_1 (1)     point group:

     e(  1 -  1) =    -38.31636  eV     1   --> A              
     e(  2 -  2) =    -38.31551  eV     1   --> A              
     e(  3 -  3) =    -38.27372  eV     1   --> A              
     e(  4 -  4) =    -38.27354  eV     1   --> A              
     e(  5 -  5) =    -38.25441  eV     1   --> A              
     e(  6 -  6) =    -26.13912  eV     1   --> A              
     e(  7 -  7) =    -26.13574  eV     1   --> A              
     e(  8 -  8) =    -26.08704  eV     1   --> A              
     e(  9 -  9) =    -26.08534  eV     1   --> A              
     e( 10 - 10) =    -26.05877  eV     1   --> A              
     e( 11 - 11) =    -12.21262  eV     1   --> A              
     e( 12 - 12) =     -9.59714  eV     1   --> A              
     e( 13 - 13) =     -5.59394  eV     1   --> A              
     e( 14 - 14) =     -4.08940  eV     1   --> A              
     e( 15 - 15) =     -3.45551  eV     1   --> A              
     e( 16 - 16) =     -0.04832  eV     1   --> A              
     e( 17 - 17) =      1.90489  eV     1   --> A              
     e( 18 - 18) =      2.04239  eV     1   --> A              
     e( 19 - 19) =      5.25999  eV     1   --> A              
     e( 20 - 20) =      5.47150  eV     1   --> A              
     e( 21 - 21) =      6.08283  eV     1   --> A              
     e( 22 - 22) =      6.40056  eV     1   --> A              
     e( 23 - 23) =      6.51776  eV     1   --> A              
     e( 24 - 24) =      6.82957  eV     1   --> A              

 **************************************************************************

 **************************************************************************

                    xk=(   0.29333,   0.57735,   0.00000  )

     Band symmetry, C_1 (1)     point group:

     e(  1 -  1) =    -38.31641  eV     1   --> A              
     e(  2 -  2) =    -38.31547  eV     1   --> A              
     e(  3 -  3) =    -38.27373  eV     1   --> A              
     e(  4 -  4) =    -38.27352  eV     1   --> A              
     e(  5 -  5) =    -38.25441  eV     1   --> A              
     e(  6 -  6) =    -26.13915  eV     1   --> A              
     e(  7 -  7) =    -26.13571  eV     1   --> A              
     e(  8 -  8) =    -26.08705  eV     1   --> A              
     e(  9 -  9) =    -26.08533  eV     1   --> A              
     e( 10 - 10) =    -26.05877  eV     1   --> A              
     e( 11 - 11) =    -12.21734  eV     1   --> A              
     e( 12 - 12) =     -9.59408  eV     1   --> A              
     e( 13 - 13) =     -5.58409  eV     1   --> A              
     e( 14 - 14) =     -4.09886  eV     1   --> A              
     e( 15 - 15) =     -3.44748  eV     1   --> A              
     e( 16 - 16) =     -0.03777  eV     1   --> A              
     e( 17 - 17) =      1.88790  eV     1   --> A              
     e( 18 - 18) =      2.04191  eV     1   --> A              
     e( 19 - 19) =      5.27404  eV     1   --> A              
     e( 20 - 20) =      5.39623  eV     1   --> A              
     e( 21 - 21) =      6.09468  eV     1   --> A              
     e( 22 - 22) =      6.36210  eV     1   --> A              
     e( 23 - 23) =      6.48493  eV     1   --> A              
     e( 24 - 24) =      6.89484  eV     1   --> A              

 **************************************************************************

 **************************************************************************

                    xk=(   0.28667,   0.57735,   0.00000  )

     Band symmetry, C_1 (1)     point group:

     e(  1 -  1) =    -38.31647  eV     1   --> A              
     e(  2 -  2) =    -38.31541  eV     1   --> A              
     e(  3 -  3) =    -38.27375  eV     1   --> A              
     e(  4 -  4) =    -38.27350  eV     1   --> A              
     e(  5 -  5) =    -38.25442  eV     1   --> A              
     e(  6 -  6) =    -26.13919  eV     1   --> A              
     e(  7 -  7) =    -26.13568  eV     1   --> A              
     e(  8 -  8) =    -26.08706  eV     1   --> A              
     e(  9 -  9) =    -26.08531  eV     1   --> A              
     e( 10 - 10) =    -26.05877  eV     1   --> A              
     e( 11 - 11) =    -12.22274  eV     1   --> A              
     e( 12 - 12) =     -9.59068  eV     1   --> A              
     e( 13 - 13) =     -5.57252  eV     1   --> A              
     e( 14 - 14) =     -4.10914  eV     1   --> A              
     e( 15 - 15) =     -3.43886  eV     1   --> A              
     e( 16 - 16) =     -0.02535  eV     1   --> A              
     e( 17 - 17) =      1.87113  eV     1   --> A              
     e( 18 - 18) =      2.03770  eV     1   --> A              
     e( 19 - 19) =      5.28769  eV     1   --> A              
     e( 20 - 20) =      5.31955  eV     1   --> A              
     e( 21 - 21) =      6.10675  eV     1   --> A              
     e( 22 - 22) =      6.32450  eV     1   --> A              
     e( 23 - 23) =      6.45277  eV     1   --> A              
     e( 24 - 24) =      6.96001  eV     1   --> A              

 **************************************************************************

 **************************************************************************

                    xk=(   0.28000,   0.57735,   0.00000  )

     Band symmetry, C_1 (1)     point group:

     e(  1 -  1) =    -38.31654  eV     1   --> A              
     e(  2 -  2) =    -38.31536  eV     1   --> A              
     e(  3 -  3) =    -38.27376  eV     1   --> A              
     e(  4 -  4) =    -38.27348  eV     1   --> A              
     e(  5 -  5) =    -38.25442  eV     1   --> A              
     e(  6 -  6) =    -26.13924  eV     1   --> A              
     e(  7 -  7) =    -26.13564  eV     1   --> A              
     e(  8 -  8) =    -26.08707  eV     1   --> A              
     e(  9 -  9) =    -26.08528  eV     1   --> A              
     e( 10 - 10) =    -26.05878  eV     1   --> A              
     e( 11 - 11) =    -12.22877  eV     1   --> A              
     e( 12 - 12) =     -9.58700  eV     1   --> A              
     e( 13 - 13) =     -5.55927  eV     1   --> A              
     e( 14 - 14) =     -4.11998  eV     1   --> A              
     e( 15 - 15) =     -3.42988  eV     1   --> A              
     e( 16 - 16) =     -0.01109  eV     1   --> A              
     e( 17 - 17) =      1.85464  eV     1   --> A              
     e( 18 - 18) =      2.02964  eV     1   --> A              
     e( 19 - 19) =      5.23060  eV     1   --> A              
     e( 20 - 20) =      5.31380  eV     1   --> A              
     e( 21 - 21) =      6.11748  eV     1   --> A              
     e( 22 - 22) =      6.28794  eV     1   --> A              
     e( 23 - 23) =      6.42174  eV     1   --> A              
     e( 24 - 24) =      6.99889  eV     1   --> A              

 **************************************************************************

 **************************************************************************

                    xk=(   0.27333,   0.57735,   0.00000  )

     Band symmetry, C_1 (1)     point group:

     e(  1 -  1) =    -38.31660  eV     1   --> A              
     e(  2 -  2) =    -38.31531  eV     1   --> A              
     e(  3 -  3) =    -38.27378  eV     1   --> A              
     e(  4 -  4) =    -38.27346  eV     1   --> A              
     e(  5 -  5) =    -38.25443  eV     1   --> A              
     e(  6 -  6) =    -26.13929  eV     1   --> A              
     e(  7 -  7) =    -26.13560  eV     1   --> A              
     e(  8 -  8) =    -26.08709  eV     1   --> A              
     e(  9 -  9) =    -26.08526  eV     1   --> A              
     e( 10 - 10) =    -26.05879  eV     1   --> A              
     e( 11 - 11) =    -12.23537  eV     1   --> A              
     e( 12 - 12) =     -9.58311  eV     1   --> A              
     e( 13 - 13) =     -5.54439  eV     1   --> A              
     e( 14 - 14) =     -4.13116  eV     1   --> A              
     e( 15 - 15) =     -3.42074  eV     1   --> A              
     e( 16 - 16) =      0.00496  eV     1   --> A              
     e( 17 - 17) =      1.83847  eV     1   --> A              
     e( 18 - 18) =      2.01764  eV     1   --> A              
     e( 19 - 19) =      5.14769  eV     1   --> A              
     e( 20 - 20) =      5.33552  eV     1   --> A              
     e( 21 - 21) =      6.12562  eV     1   --> A              
     e( 22 - 22) =      6.25253  eV     1   --> A              
     e( 23 - 23) =      6.39221  eV     1   --> A              
     e( 24 - 24) =      6.99890  eV     1   --> A              

 **************************************************************************

 **************************************************************************

                    xk=(   0.26667,   0.57735,   0.00000  )

     Band symmetry, C_1 (1)     point group:

     e(  1 -  1) =    -38.31667  eV     1   --> A              
     e(  2 -  2) =    -38.31525  eV     1   --> A              
     e(  3 -  3) =    -38.27379  eV     1   --> A              
     e(  4 -  4) =    -38.27344  eV     1   --> A              
     e(  5 -  5) =    -38.25443  eV     1   --> A              
     e(  6 -  6) =    -26.13935  eV     1   --> A              
     e(  7 -  7) =    -26.13555  eV     1   --> A              
     e(  8 -  8) =    -26.08710  eV     1   --> A              
     e(  9 -  9) =    -26.08523  eV     1   --> A              
     e( 10 - 10) =    -26.05879  eV     1   --> A              
     e( 11 - 11) =    -12.24248  eV     1   --> A              
     e( 12 - 12) =     -9.57906  eV     1   --> A              
     e( 13 - 13) =     -5.52794  eV     1   --> A              
     e( 14 - 14) =     -4.14246  eV     1   --> A              
     e( 15 - 15) =     -3.41161  eV     1   --> A              
     e( 16 - 16) =      0.02274  eV     1   --> A              
     e( 17 - 17) =      1.82267  eV     1   --> A              
     e( 18 - 18) =      2.00164  eV     1   --> A              
     e( 19 - 19) =      5.06426  eV     1   --> A              
     e( 20 - 20) =      5.36041  eV     1   --> A              
     e( 21 - 21) =      6.13014  eV     1   --> A              
     e( 22 - 22) =      6.21836  eV     1   --> A              
     e( 23 - 23) =      6.36456  eV     1   --> A              
     e( 24 - 24) =      6.98497  eV     1   --> A              

 **************************************************************************

 **************************************************************************

                    xk=(   0.26000,   0.57735,   0.00000  )

     Band symmetry, C_1 (1)     point group:

     e(  1 -  1) =    -38.31674  eV     1   --> A              
     e(  2 -  2) =    -38.31520  eV     1   --> A              
     e(  3 -  3) =    -38.27381  eV     1   --> A              
     e(  4 -  4) =    -38.27342  eV     1   --> A              
     e(  5 -  5) =    -38.25444  eV     1   --> A              
     e(  6 -  6) =    -26.13941  eV     1   --> A              
     e(  7 -  7) =    -26.13550  eV     1   --> A              
     e(  8 -  8) =    -26.08712  eV     1   --> A              
     e(  9 -  9) =    -26.08520  eV     1   --> A              
     e( 10 - 10) =    -26.05880  eV     1   --> A              
     e( 11 - 11) =    -12.25004  eV     1   --> A              
     e( 12 - 12) =     -9.57489  eV     1   --> A              
     e( 13 - 13) =     -5.51000  eV     1   --> A              
     e( 14 - 14) =     -4.15368  eV     1   --> A              
     e( 15 - 15) =     -3.40263  eV     1   --> A              
     e( 16 - 16) =      0.04217  eV     1   --> A              
     e( 17 - 17) =      1.80727  eV     1   --> A              
     e( 18 - 18) =      1.98163  eV     1   --> A              
     e( 19 - 19) =      4.98160  eV     1   --> A              
     e( 20 - 20) =      5.38787  eV     1   --> A              
     e( 21 - 21) =      6.13009  eV     1   --> A              
     e( 22 - 22) =      6.18568  eV     1   --> A              
     e( 23 - 23) =      6.33912  eV     1   --> A              
     e( 24 - 24) =      6.95847  eV     1   --> A              

 **************************************************************************

 **************************************************************************

                    xk=(   0.25333,   0.57735,   0.00000  )

     Band symmetry, C_1 (1)     point group:

     e(  1 -  1) =    -38.31681  eV     1   --> A              
     e(  2 -  2) =    -38.31514  eV     1   --> A              
     e(  3 -  3) =    -38.27382  eV     1   --> A              
     e(  4 -  4) =    -38.27340  eV     1   --> A              
     e(  5 -  5) =    -38.25444  eV     1   --> A              
     e(  6 -  6) =    -26.13947  eV     1   --> A              
     e(  7 -  7) =    -26.13545  eV     1   --> A              
     e(  8 -  8) =    -26.08714  eV     1   --> A              
     e(  9 -  9) =    -26.08517  eV     1   --> A              
     e( 10 - 10) =    -26.05881  eV     1   --> A              
     e( 11 - 11) =    -12.25802  eV     1   --> A              
     e( 12 - 12) =     -9.57067  eV     1   --> A              
     e( 13 - 13) =     -5.49064  eV     1   --> A              
     e( 14 - 14) =     -4.16463  eV     1   --> A              
     e( 15 - 15) =     -3.39391  eV     1   --> A              
     e( 16 - 16) =      0.06318  eV     1   --> A              
     e( 17 - 17) =      1.79228  eV     1   --> A              
     e( 18 - 18) =      1.95764  eV     1   --> A              
     e( 19 - 19) =      4.90042  eV     1   --> A              
     e( 20 - 20) =      5.41764  eV     1   --> A              
     e( 21 - 21) =      6.12431  eV     1   --> A              
     e( 22 - 22) =      6.15518  eV     1   --> A              
     e( 23 - 23) =      6.31616  eV     1   --> A              
     e( 24 - 24) =      6.92970  eV     1   --> A              

 **************************************************************************

 **************************************************************************

                    xk=(   0.24667,   0.57735,   0.00000  )

     Band symmetry, C_1 (1)     point group:

     e(  1 -  1) =    -38.31688  eV     1   --> A              
     e(  2 -  2) =    -38.31509  eV     1   --> A              
     e(  3 -  3) =    -38.27384  eV     1   --> A              
     e(  4 -  4) =    -38.27338  eV     1   --> A              
     e(  5 -  5) =    -38.25445  eV     1   --> A              
     e(  6 -  6) =    -26.13954  eV     1   --> A              
     e(  7 -  7) =    -26.13539  eV     1   --> A              
     e(  8 -  8) =    -26.08716  eV     1   --> A              
     e(  9 -  9) =    -26.08513  eV     1   --> A              
     e( 10 - 10) =    -26.05882  eV     1   --> A              
     e( 11 - 11) =    -12.26635  eV     1   --> A              
     e( 12 - 12) =     -9.56644  eV     1   --> A              
     e( 13 - 13) =     -5.46997  eV     1   --> A              
     e( 14 - 14) =     -4.17514  eV     1   --> A              
     e( 15 - 15) =     -3.38555  eV     1   --> A              
     e( 16 - 16) =      0.08566  eV     1   --> A              
     e( 17 - 17) =      1.77766  eV     1   --> A              
     e( 18 - 18) =      1.92979  eV     1   --> A              
     e( 19 - 19) =      4.82122  eV     1   --> A              
     e( 20 - 20) =      5.44951  eV     1   --> A              
     e( 21 - 21) =      6.11007  eV     1   --> A              
     e( 22 - 22) =      6.12956  eV     1   --> A              
     e( 23 - 23) =      6.29571  eV     1   --> A              
     e( 24 - 24) =      6.90138  eV     1   --> A              

 **************************************************************************

 **************************************************************************

                    xk=(   0.24000,   0.57735,   0.00000  )

     Band symmetry, C_1 (1)     point group:

     e(  1 -  1) =    -38.31696  eV     1   --> A              
     e(  2 -  2) =    -38.31503  eV     1   --> A              
     e(  3 -  3) =    -38.27385  eV     1   --> A              
     e(  4 -  4) =    -38.27336  eV     1   --> A              
     e(  5 -  5) =    -38.25446  eV     1   --> A              
     e(  6 -  6) =    -26.13961  eV     1   --> A              
     e(  7 -  7) =    -26.13533  eV     1   --> A              
     e(  8 -  8) =    -26.08718  eV     1   --> A              
     e(  9 -  9) =    -26.08510  eV     1   --> A              
     e( 10 - 10) =    -26.05882  eV     1   --> A              
     e( 11 - 11) =    -12.27498  eV     1   --> A              
     e( 12 - 12) =     -9.56223  eV     1   --> A              
     e( 13 - 13) =     -5.44808  eV     1   --> A              
     e( 14 - 14) =     -4.18504  eV     1   --> A              
     e( 15 - 15) =     -3.37763  eV     1   --> A              
     e( 16 - 16) =      0.10952  eV     1   --> A              
     e( 17 - 17) =      1.76331  eV     1   --> A              
     e( 18 - 18) =      1.89829  eV     1   --> A              
     e( 19 - 19) =      4.74438  eV     1   --> A              
     e( 20 - 20) =      5.48320  eV     1   --> A              
     e( 21 - 21) =      6.08624  eV     1   --> A              
     e( 22 - 22) =      6.11035  eV     1   --> A              
     e( 23 - 23) =      6.27747  eV     1   --> A              
     e( 24 - 24) =      6.87402  eV     1   --> A              

 **************************************************************************

 **************************************************************************

                    xk=(   0.23333,   0.57735,   0.00000  )

     Band symmetry, C_1 (1)     point group:

     e(  1 -  1) =    -38.31703  eV     1   --> A              
     e(  2 -  2) =    -38.31498  eV     1   --> A              
     e(  3 -  3) =    -38.27387  eV     1   --> A              
     e(  4 -  4) =    -38.27334  eV     1   --> A              
     e(  5 -  5) =    -38.25446  eV     1   --> A              
     e(  6 -  6) =    -26.13969  eV     1   --> A              
     e(  7 -  7) =    -26.13527  eV     1   --> A              
     e(  8 -  8) =    -26.08720  eV     1   --> A              
     e(  9 -  9) =    -26.08506  eV     1   --> A              
     e( 10 - 10) =    -26.05883  eV     1   --> A              
     e( 11 - 11) =    -12.28389  eV     1   --> A              
     e( 12 - 12) =     -9.55808  eV     1   --> A              
     e( 13 - 13) =     -5.42511  eV     1   --> A              
     e( 14 - 14) =     -4.19418  eV     1   --> A              
     e( 15 - 15) =     -3.37020  eV     1   --> A              
     e( 16 - 16) =      0.13461  eV     1   --> A              
     e( 17 - 17) =      1.74893  eV     1   --> A              
     e( 18 - 18) =      1.86359  eV     1   --> A              
     e( 19 - 19) =      4.67019  eV     1   --> A              
     e( 20 - 20) =      5.51838  eV     1   --> A              
     e( 21 - 21) =      6.05959  eV     1   --> A              
     e( 22 - 22) =      6.09159  eV     1   --> A              
     e( 23 - 23) =      6.26089  eV     1   --> A              
     e( 24 - 24) =      6.84781  eV     1   --> A              

 **************************************************************************

 **************************************************************************

                    xk=(   0.22667,   0.57735,   0.00000  )

     Band symmetry, C_1 (1)     point group:

     e(  1 -  1) =    -38.31710  eV     1   --> A              
     e(  2 -  2) =    -38.31492  eV     1   --> A              
     e(  3 -  3) =    -38.27388  eV     1   --> A              
     e(  4 -  4) =    -38.27332  eV     1   --> A              
     e(  5 -  5) =    -38.25447  eV     1   --> A              
     e(  6 -  6) =    -26.13976  eV     1   --> A              
     e(  7 -  7) =    -26.13521  eV     1   --> A              
     e(  8 -  8) =    -26.08722  eV     1   --> A              
     e(  9 -  9) =    -26.08502  eV     1   --> A              
     e( 10 - 10) =    -26.05884  eV     1   --> A              
     e( 11 - 11) =    -12.29299  eV     1   --> A              
     e( 12 - 12) =     -9.55402  eV     1   --> A              
     e( 13 - 13) =     -5.40118  eV     1   --> A              
     e( 14 - 14) =     -4.20240  eV     1   --> A              
     e( 15 - 15) =     -3.36330  eV     1   --> A              
     e( 16 - 16) =      0.16082  eV     1   --> A              
     e( 17 - 17) =      1.73376  eV     1   --> A              
     e( 18 - 18) =      1.82667  eV     1   --> A              
     e( 19 - 19) =      4.59887  eV     1   --> A              
     e( 20 - 20) =      5.55462  eV     1   --> A              
     e( 21 - 21) =      6.03347  eV     1   --> A              
     e( 22 - 22) =      6.07101  eV     1   --> A              
     e( 23 - 23) =      6.24530  eV     1   --> A              
     e( 24 - 24) =      6.82287  eV     1   --> A              

 **************************************************************************

 **************************************************************************

                    xk=(   0.22000,   0.57735,   0.00000  )

     Band symmetry, C_1 (1)     point group:

     e(  1 -  1) =    -38.31717  eV     1   --> A              
     e(  2 -  2) =    -38.31487  eV     1   --> A              
     e(  3 -  3) =    -38.27389  eV     1   --> A              
     e(  4 -  4) =    -38.27330  eV     1   --> A              
     e(  5 -  5) =    -38.25448  eV     1   --> A              
     e(  6 -  6) =    -26.13984  eV     1   --> A              
     e(  7 -  7) =    -26.13515  eV     1   --> A              
     e(  8 -  8) =    -26.08724  eV     1   --> A              
     e(  9 -  9) =    -26.08498  eV     1   --> A              
     e( 10 - 10) =    -26.05885  eV     1   --> A              
     e( 11 - 11) =    -12.30223  eV     1   --> A              
     e( 12 - 12) =     -9.55008  eV     1   --> A              
     e( 13 - 13) =     -5.37646  eV     1   --> A              
     e( 14 - 14) =     -4.20954  eV     1   --> A              
     e( 15 - 15) =     -3.35697  eV     1   --> A              
     e( 16 - 16) =      0.18798  eV     1   --> A              
     e( 17 - 17) =      1.71567  eV     1   --> A              
     e( 18 - 18) =      1.78986  eV     1   --> A              
     e( 19 - 19) =      4.53056  eV     1   --> A              
     e( 20 - 20) =      5.59137  eV     1   --> A              
     e( 21 - 21) =      6.00880  eV     1   --> A              
     e( 22 - 22) =      6.04878  eV     1   --> A              
     e( 23 - 23) =      6.23012  eV     1   --> A              
     e( 24 - 24) =      6.79930  eV     1   --> A              

 **************************************************************************

 **************************************************************************

                    xk=(   0.21333,   0.57735,   0.00000  )

     Band symmetry, C_1 (1)     point group:

     e(  1 -  1) =    -38.31725  eV     1   --> A              
     e(  2 -  2) =    -38.31482  eV     1   --> A              
     e(  3 -  3) =    -38.27391  eV     1   --> A              
     e(  4 -  4) =    -38.27328  eV     1   --> A              
     e(  5 -  5) =    -38.25448  eV     1   --> A              
     e(  6 -  6) =    -26.13992  eV     1   --> A              
     e(  7 -  7) =    -26.13509  eV     1   --> A              
     e(  8 -  8) =    -26.08726  eV     1   --> A              
     e(  9 -  9) =    -26.08494  eV     1   --> A              
     e( 10 - 10) =    -26.05886  eV     1   --> A              
     e( 11 - 11) =    -12.31158  eV     1   --> A              
     e( 12 - 12) =     -9.54627  eV     1   --> A              
     e( 13 - 13) =     -5.35110  eV     1   --> A              
     e( 14 - 14) =     -4.21545  eV     1   --> A              
     e( 15 - 15) =     -3.35121  eV     1   --> A              
     e( 16 - 16) =      0.21592  eV     1   --> A              
     e( 17 - 17) =      1.68978  eV     1   --> A              
     e( 18 - 18) =      1.75833  eV     1   --> A              
     e( 19 - 19) =      4.46537  eV     1   --> A              
     e( 20 - 20) =      5.62784  eV     1   --> A              
     e( 21 - 21) =      5.98619  eV     1   --> A              
     e( 22 - 22) =      6.02547  eV     1   --> A              
     e( 23 - 23) =      6.21494  eV     1   --> A              
     e( 24 - 24) =      6.77721  eV     1   --> A              

 **************************************************************************

 **************************************************************************

                    xk=(   0.20667,   0.57735,   0.00000  )

     Band symmetry, C_1 (1)     point group:

     e(  1 -  1) =    -38.31732  eV     1   --> A              
     e(  2 -  2) =    -38.31476  eV     1   --> A              
     e(  3 -  3) =    -38.27392  eV     1   --> A              
     e(  4 -  4) =    -38.27326  eV     1   --> A              
     e(  5 -  5) =    -38.25449  eV     1   --> A              
     e(  6 -  6) =    -26.14000  eV     1   --> A              
     e(  7 -  7) =    -26.13502  eV     1   --> A              
     e(  8 -  8) =    -26.08728  eV     1   --> A              
     e(  9 -  9) =    -26.08490  eV     1   --> A              
     e( 10 - 10) =    -26.05887  eV     1   --> A              
     e( 11 - 11) =    -12.32102  eV     1   --> A              
     e( 12 - 12) =     -9.54263  eV     1   --> A              
     e( 13 - 13) =     -5.32530  eV     1   --> A              
     e( 14 - 14) =     -4.21995  eV     1   --> A              
     e( 15 - 15) =     -3.34604  eV     1   --> A              
     e( 16 - 16) =      0.24445  eV     1   --> A              
     e( 17 - 17) =      1.65173  eV     1   --> A              
     e( 18 - 18) =      1.73677  eV     1   --> A              
     e( 19 - 19) =      4.40336  eV     1   --> A              
     e( 20 - 20) =      5.66289  eV     1   --> A              
     e( 21 - 21) =      5.96629  eV     1   --> A              
     e( 22 - 22) =      6.00171  eV     1   --> A              
     e( 23 - 23) =      6.19954  eV     1   --> A              
     e( 24 - 24) =      6.75672  eV     1   --> A              

 **************************************************************************

 **************************************************************************

                    xk=(   0.20000,   0.57735,   0.00000  )

     Band symmetry, C_1 (1)     point group:

     e(  1 -  1) =    -38.31739  eV     1   --> A              
     e(  2 -  2) =    -38.31471  eV     1   --> A              
     e(  3 -  3) =    -38.27393  eV     1   --> A              
     e(  4 -  4) =    -38.27324  eV     1   --> A              
     e(  5 -  5) =    -38.25450  eV     1   --> A              
     e(  6 -  6) =    -26.14008  eV     1   --> A              
     e(  7 -  7) =    -26.13496  eV     1   --> A              
     e(  8 -  8) =    -26.08731  eV     1   --> A              
     e(  9 -  9) =    -26.08486  eV     1   --> A              
     e( 10 - 10) =    -26.05888  eV     1   --> A              
     e( 11 - 11) =    -12.33053  eV     1   --> A              
     e( 12 - 12) =     -9.53917  eV     1   --> A              
     e( 13 - 13) =     -5.29925  eV     1   --> A              
     e( 14 - 14) =     -4.22290  eV     1   --> A              
     e( 15 - 15) =     -3.34147  eV     1   --> A              
     e( 16 - 16) =      0.27337  eV     1   --> A              
     e( 17 - 17) =      1.60401  eV     1   --> A              
     e( 18 - 18) =      1.72303  eV     1   --> A              
     e( 19 - 19) =      4.34454  eV     1   --> A              
     e( 20 - 20) =      5.69480  eV     1   --> A              
     e( 21 - 21) =      5.94979  eV     1   --> A              
     e( 22 - 22) =      5.97845  eV     1   --> A              
     e( 23 - 23) =      6.18384  eV     1   --> A              
     e( 24 - 24) =      6.73796  eV     1   --> A              

 **************************************************************************

 **************************************************************************

                    xk=(   0.19333,   0.57735,   0.00000  )

     Band symmetry, C_1 (1)     point group:

     e(  1 -  1) =    -38.31746  eV     1   --> A              
     e(  2 -  2) =    -38.31466  eV     1   --> A              
     e(  3 -  3) =    -38.27394  eV     1   --> A              
     e(  4 -  4) =    -38.27322  eV     1   --> A              
     e(  5 -  5) =    -38.25451  eV     1   --> A              
     e(  6 -  6) =    -26.14016  eV     1   --> A              
     e(  7 -  7) =    -26.13489  eV     1   --> A              
     e(  8 -  8) =    -26.08733  eV     1   --> A              
     e(  9 -  9) =    -26.08482  eV     1   --> A              
     e( 10 - 10) =    -26.05889  eV     1   --> A              
     e( 11 - 11) =    -12.34000  eV     1   --> A              
     e( 12 - 12) =     -9.53589  eV     1   --> A              
     e( 13 - 13) =     -5.27316  eV     1   --> A              
     e( 14 - 14) =     -4.22412  eV     1   --> A              
     e( 15 - 15) =     -3.33749  eV     1   --> A              
     e( 16 - 16) =      0.30244  eV     1   --> A              
     e( 17 - 17) =      1.55054  eV     1   --> A              
     e( 18 - 18) =      1.71360  eV     1   --> A              
     e( 19 - 19) =      4.28889  eV     1   --> A              
     e( 20 - 20) =      5.72111  eV     1   --> A              
     e( 21 - 21) =      5.93573  eV     1   --> A              
     e( 22 - 22) =      5.95892  eV     1   --> A              
     e( 23 - 23) =      6.16787  eV     1   --> A              
     e( 24 - 24) =      6.72111  eV     1   --> A              

 **************************************************************************

 **************************************************************************

                    xk=(   0.18667,   0.57735,   0.00000  )

     Band symmetry, C_1 (1)     point group:

     e(  1 -  1) =    -38.31753  eV     1   --> A              
     e(  2 -  2) =    -38.31462  eV     1   --> A              
     e(  3 -  3) =    -38.27395  eV     1   --> A              
     e(  4 -  4) =    -38.27320  eV     1   --> A              
     e(  5 -  5) =    -38.25451  eV     1   --> A              
     e(  6 -  6) =    -26.14024  eV     1   --> A              
     e(  7 -  7) =    -26.13482  eV     1   --> A              
     e(  8 -  8) =    -26.08735  eV     1   --> A              
     e(  9 -  9) =    -26.08477  eV     1   --> A              
     e( 10 - 10) =    -26.05890  eV     1   --> A              
     e( 11 - 11) =    -12.34945  eV     1   --> A              
     e( 12 - 12) =     -9.53281  eV     1   --> A              
     e( 13 - 13) =     -5.24726  eV     1   --> A              
     e( 14 - 14) =     -4.22345  eV     1   --> A              
     e( 15 - 15) =     -3.33408  eV     1   --> A              
     e( 16 - 16) =      0.33140  eV     1   --> A              
     e( 17 - 17) =      1.49338  eV     1   --> A              
     e( 18 - 18) =      1.70685  eV     1   --> A              
     e( 19 - 19) =      4.23636  eV     1   --> A              
     e( 20 - 20) =      5.73893  eV     1   --> A              
     e( 21 - 21) =      5.91764  eV     1   --> A              
     e( 22 - 22) =      5.95204  eV     1   --> A              
     e( 23 - 23) =      6.15177  eV     1   --> A              
     e( 24 - 24) =      6.70633  eV     1   --> A              

 **************************************************************************

 **************************************************************************

                    xk=(   0.18000,   0.57735,   0.00000  )

     Band symmetry, C_1 (1)     point group:

     e(  1 -  1) =    -38.31760  eV     1   --> A              
     e(  2 -  2) =    -38.31457  eV     1   --> A              
     e(  3 -  3) =    -38.27396  eV     1   --> A              
     e(  4 -  4) =    -38.27318  eV     1   --> A              
     e(  5 -  5) =    -38.25452  eV     1   --> A              
     e(  6 -  6) =    -26.14032  eV     1   --> A              
     e(  7 -  7) =    -26.13476  eV     1   --> A              
     e(  8 -  8) =    -26.08737  eV     1   --> A              
     e(  9 -  9) =    -26.08473  eV     1   --> A              
     e( 10 - 10) =    -26.05891  eV     1   --> A              
     e( 11 - 11) =    -12.35881  eV     1   --> A              
     e( 12 - 12) =     -9.52992  eV     1   --> A              
     e( 13 - 13) =     -5.22177  eV     1   --> A              
     e( 14 - 14) =     -4.22073  eV     1   --> A              
     e( 15 - 15) =     -3.33125  eV     1   --> A              
     e( 16 - 16) =      0.35995  eV     1   --> A              
     e( 17 - 17) =      1.43362  eV     1   --> A              
     e( 18 - 18) =      1.70218  eV     1   --> A              
     e( 19 - 19) =      4.18688  eV     1   --> A              
     e( 20 - 20) =      5.74658  eV     1   --> A              
     e( 21 - 21) =      5.89471  eV     1   --> A              
     e( 22 - 22) =      5.95976  eV     1   --> A              
     e( 23 - 23) =      6.13577  eV     1   --> A              
     e( 24 - 24) =      6.69386  eV     1   --> A              

 **************************************************************************

 **************************************************************************

                    xk=(   0.17333,   0.57735,   0.00000  )

     Band symmetry, C_1 (1)     point group:

     e(  1 -  1) =    -38.31766  eV     1   --> A              
     e(  2 -  2) =    -38.31452  eV     1   --> A              
     e(  3 -  3) =    -38.27398  eV     1   --> A              
     e(  4 -  4) =    -38.27316  eV     1   --> A              
     e(  5 -  5) =    -38.25453  eV     1   --> A              
     e(  6 -  6) =    -26.14040  eV     1   --> A              
     e(  7 -  7) =    -26.13469  eV     1   --> A              
     e(  8 -  8) =    -26.08739  eV     1   --> A              
     e(  9 -  9) =    -26.08469  eV     1   --> A              
     e( 10 - 10) =    -26.05892  eV     1   --> A              
     e( 11 - 11) =    -12.36808  eV     1   --> A              
     e( 12 - 12) =     -9.52724  eV     1   --> A              
     e( 13 - 13) =     -5.19692  eV     1   --> A              
     e( 14 - 14) =     -4.21581  eV     1   --> A              
     e( 15 - 15) =     -3.32897  eV     1   --> A              
     e( 16 - 16) =      0.38776  eV     1   --> A              
     e( 17 - 17) =      1.37203  eV     1   --> A              
     e( 18 - 18) =      1.69936  eV     1   --> A              
     e( 19 - 19) =      4.14036  eV     1   --> A              
     e( 20 - 20) =      5.74506  eV     1   --> A              
     e( 21 - 21) =      5.87031  eV     1   --> A              
     e( 22 - 22) =      5.97680  eV     1   --> A              
     e( 23 - 23) =      6.12036  eV     1   --> A              
     e( 24 - 24) =      6.68392  eV     1   --> A              

 **************************************************************************

 **************************************************************************

                    xk=(   0.16667,   0.57735,   0.00000  )

     Band symmetry, C_1 (1)     point group:

     e(  1 -  1) =    -38.31773  eV     1   --> A              
     e(  2 -  2) =    -38.31448  eV     1   --> A              
     e(  3 -  3) =    -38.27399  eV     1   --> A              
     e(  4 -  4) =    -38.27314  eV     1   --> A              
     e(  5 -  5) =    -38.25454  eV     1   --> A              
     e(  6 -  6) =    -26.14047  eV     1   --> A              
     e(  7 -  7) =    -26.13463  eV     1   --> A              
     e(  8 -  8) =    -26.08741  eV     1   --> A              
     e(  9 -  9) =    -26.08465  eV     1   --> A              
     e( 10 - 10) =    -26.05893  eV     1   --> A              
     e( 11 - 11) =    -12.37723  eV     1   --> A              
     e( 12 - 12) =     -9.52476  eV     1   --> A              
     e( 13 - 13) =     -5.17295  eV     1   --> A              
     e( 14 - 14) =     -4.20855  eV     1   --> A              
     e( 15 - 15) =     -3.32723  eV     1   --> A              
     e( 16 - 16) =      0.41444  eV     1   --> A              
     e( 17 - 17) =      1.30927  eV     1   --> A              
     e( 18 - 18) =      1.69832  eV     1   --> A              
     e( 19 - 19) =      4.09670  eV     1   --> A              
     e( 20 - 20) =      5.73717  eV     1   --> A              
     e( 21 - 21) =      5.84548  eV     1   --> A              
     e( 22 - 22) =      5.99781  eV     1   --> A              
     e( 23 - 23) =      6.10653  eV     1   --> A              
     e( 24 - 24) =      6.67674  eV     1   --> A              

 **************************************************************************

 **************************************************************************

                    xk=(   0.16000,   0.57735,   0.00000  )

     Band symmetry, C_1 (1)     point group:

     e(  1 -  1) =    -38.31779  eV     1   --> A              
     e(  2 -  2) =    -38.31443  eV     1   --> A              
     e(  3 -  3) =    -38.27400  eV     1   --> A              
     e(  4 -  4) =    -38.27312  eV     1   --> A              
     e(  5 -  5) =    -38.25454  eV     1   --> A              
     e(  6 -  6) =    -26.14055  eV     1   --> A              
     e(  7 -  7) =    -26.13457  eV     1   --> A              
     e(  8 -  8) =    -26.08743  eV     1   --> A              
     e(  9 -  9) =    -26.08461  eV     1   --> A              
     e( 10 - 10) =    -26.05894  eV     1   --> A              
     e( 11 - 11) =    -12.38623  eV     1   --> A              
     e( 12 - 12) =     -9.52248  eV     1   --> A              
     e( 13 - 13) =     -5.15005  eV     1   --> A              
     e( 14 - 14) =     -4.19883  eV     1   --> A              
     e( 15 - 15) =     -3.32601  eV     1   --> A              
     e( 16 - 16) =      0.43952  eV     1   --> A              
     e( 17 - 17) =      1.24602  eV     1   --> A              
     e( 18 - 18) =      1.69905  eV     1   --> A              
     e( 19 - 19) =      4.05578  eV     1   --> A              
     e( 20 - 20) =      5.72554  eV     1   --> A              
     e( 21 - 21) =      5.82052  eV     1   --> A              
     e( 22 - 22) =      6.01682  eV     1   --> A              
     e( 23 - 23) =      6.09685  eV     1   --> A              
     e( 24 - 24) =      6.67252  eV     1   --> A              

 **************************************************************************

 **************************************************************************

                    xk=(   0.15333,   0.57735,   0.00000  )

     Band symmetry, C_1 (1)     point group:

     e(  1 -  1) =    -38.31786  eV     1   --> A              
     e(  2 -  2) =    -38.31439  eV     1   --> A              
     e(  3 -  3) =    -38.27401  eV     1   --> A              
     e(  4 -  4) =    -38.27311  eV     1   --> A              
     e(  5 -  5) =    -38.25455  eV     1   --> A              
     e(  6 -  6) =    -26.14063  eV     1   --> A              
     e(  7 -  7) =    -26.13451  eV     1   --> A              
     e(  8 -  8) =    -26.08746  eV     1   --> A              
     e(  9 -  9) =    -26.08457  eV     1   --> A              
     e( 10 - 10) =    -26.05895  eV     1   --> A              
     e( 11 - 11) =    -12.39505  eV     1   --> A              
     e( 12 - 12) =     -9.52040  eV     1   --> A              
     e( 13 - 13) =     -5.12843  eV     1   --> A              
     e( 14 - 14) =     -4.18658  eV     1   --> A              
     e( 15 - 15) =     -3.32530  eV     1   --> A              
     e( 16 - 16) =      0.46240  eV     1   --> A              
     e( 17 - 17) =      1.18305  eV     1   --> A              
     e( 18 - 18) =      1.70156  eV     1   --> A              
     e( 19 - 19) =      4.01749  eV     1   --> A              
     e( 20 - 20) =      5.71193  eV     1   --> A              
     e( 21 - 21) =      5.79555  eV     1   --> A              
     e( 22 - 22) =      6.02617  eV     1   --> A              
     e( 23 - 23) =      6.09661  eV     1   --> A              
     e( 24 - 24) =      6.67131  eV     1   --> A              

 **************************************************************************

 **************************************************************************

                    xk=(   0.14667,   0.57735,   0.00000  )

     Band symmetry, C_1 (1)     point group:

     e(  1 -  1) =    -38.31792  eV     1   --> A              
     e(  2 -  2) =    -38.31435  eV     1   --> A              
     e(  3 -  3) =    -38.27402  eV     1   --> A              
     e(  4 -  4) =    -38.27309  eV     1   --> A              
     e(  5 -  5) =    -38.25456  eV     1   --> A              
     e(  6 -  6) =    -26.14070  eV     1   --> A              
     e(  7 -  7) =    -26.13445  eV     1   --> A              
     e(  8 -  8) =    -26.08747  eV     1   --> A              
     e(  9 -  9) =    -26.08453  eV     1   --> A              
     e( 10 - 10) =    -26.05896  eV     1   --> A              
     e( 11 - 11) =    -12.40363  eV     1   --> A              
     e( 12 - 12) =     -9.51851  eV     1   --> A              
     e( 13 - 13) =     -5.10823  eV     1   --> A              
     e( 14 - 14) =     -4.17175  eV     1   --> A              
     e( 15 - 15) =     -3.32507  eV     1   --> A              
     e( 16 - 16) =      0.48234  eV     1   --> A              
     e( 17 - 17) =      1.12130  eV     1   --> A              
     e( 18 - 18) =      1.70587  eV     1   --> A              
     e( 19 - 19) =      3.98170  eV     1   --> A              
     e( 20 - 20) =      5.69738  eV     1   --> A              
     e( 21 - 21) =      5.77061  eV     1   --> A              
     e( 22 - 22) =      6.02246  eV     1   --> A              
     e( 23 - 23) =      6.10769  eV     1   --> A              
     e( 24 - 24) =      6.67293  eV     1   --> A              

 **************************************************************************

 **************************************************************************

                    xk=(   0.14000,   0.57735,   0.00000  )

     Band symmetry, C_1 (1)     point group:

     e(  1 -  1) =    -38.31798  eV     1   --> A              
     e(  2 -  2) =    -38.31431  eV     1   --> A              
     e(  3 -  3) =    -38.27402  eV     1   --> A              
     e(  4 -  4) =    -38.27307  eV     1   --> A              
     e(  5 -  5) =    -38.25457  eV     1   --> A              
     e(  6 -  6) =    -26.14078  eV     1   --> A              
     e(  7 -  7) =    -26.13439  eV     1   --> A              
     e(  8 -  8) =    -26.08749  eV     1   --> A              
     e(  9 -  9) =    -26.08449  eV     1   --> A              
     e( 10 - 10) =    -26.05897  eV     1   --> A              
     e( 11 - 11) =    -12.41198  eV     1   --> A              
     e( 12 - 12) =     -9.51679  eV     1   --> A              
     e( 13 - 13) =     -5.08958  eV     1   --> A              
     e( 14 - 14) =     -4.15436  eV     1   --> A              
     e( 15 - 15) =     -3.32533  eV     1   --> A              
     e( 16 - 16) =      0.49835  eV     1   --> A              
     e( 17 - 17) =      1.06194  eV     1   --> A              
     e( 18 - 18) =      1.71199  eV     1   --> A              
     e( 19 - 19) =      3.94831  eV     1   --> A              
     e( 20 - 20) =      5.68253  eV     1   --> A              
     e( 21 - 21) =      5.74570  eV     1   --> A              
     e( 22 - 22) =      6.01124  eV     1   --> A              
     e( 23 - 23) =      6.12362  eV     1   --> A              
     e( 24 - 24) =      6.67660  eV     1   --> A              

 **************************************************************************

 **************************************************************************

                    xk=(   0.13333,   0.57735,   0.00000  )

     Band symmetry, C_1 (1)     point group:

     e(  1 -  1) =    -38.31803  eV     1   --> A              
     e(  2 -  2) =    -38.31427  eV     1   --> A              
     e(  3 -  3) =    -38.27403  eV     1   --> A              
     e(  4 -  4) =    -38.27305  eV     1   --> A              
     e(  5 -  5) =    -38.25457  eV     1   --> A              
     e(  6 -  6) =    -26.14085  eV     1   --> A              
     e(  7 -  7) =    -26.13433  eV     1   --> A              
     e(  8 -  8) =    -26.08751  eV     1   --> A              
     e(  9 -  9) =    -26.08446  eV     1   --> A              
     e( 10 - 10) =    -26.05897  eV     1   --> A              
     e( 11 - 11) =    -12.42007  eV     1   --> A              
     e( 12 - 12) =     -9.51526  eV     1   --> A              
     e( 13 - 13) =     -5.07255  eV     1   --> A              
     e( 14 - 14) =     -4.13445  eV     1   --> A              
     e( 15 - 15) =     -3.32604  eV     1   --> A              
     e( 16 - 16) =      0.50911  eV     1   --> A              
     e( 17 - 17) =      1.00648  eV     1   --> A              
     e( 18 - 18) =      1.71989  eV     1   --> A              
     e( 19 - 19) =      3.91719  eV     1   --> A              
     e( 20 - 20) =      5.66773  eV     1   --> A              
     e( 21 - 21) =      5.72085  eV     1   --> A              
     e( 22 - 22) =      5.99720  eV     1   --> A              
     e( 23 - 23) =      6.13926  eV     1   --> A              
     e( 24 - 24) =      6.68012  eV     1   --> A              

 **************************************************************************

 **************************************************************************

                    xk=(   0.12667,   0.57735,   0.00000  )

     Band symmetry, C_1 (1)     point group:

     e(  1 -  1) =    -38.31809  eV     1   --> A              
     e(  2 -  2) =    -38.31424  eV     1   --> A              
     e(  3 -  3) =    -38.27404  eV     1   --> A              
     e(  4 -  4) =    -38.27304  eV     1   --> A              
     e(  5 -  5) =    -38.25458  eV     1   --> A              
     e(  6 -  6) =    -26.14091  eV     1   --> A              
     e(  7 -  7) =    -26.13428  eV     1   --> A              
     e(  8 -  8) =    -26.08753  eV     1   --> A              
     e(  9 -  9) =    -26.08442  eV     1   --> A              
     e( 10 - 10) =    -26.05898  eV     1   --> A              
     e( 11 - 11) =    -12.42791  eV     1   --> A              
     e( 12 - 12) =     -9.51389  eV     1   --> A              
     e( 13 - 13) =     -5.05720  eV     1   --> A              
     e( 14 - 14) =     -4.11214  eV     1   --> A              
     e( 15 - 15) =     -3.32720  eV     1   --> A              
     e( 16 - 16) =      0.51291  eV     1   --> A              
     e( 17 - 17) =      0.95682  eV     1   --> A              
     e( 18 - 18) =      1.72955  eV     1   --> A              
     e( 19 - 19) =      3.88822  eV     1   --> A              
     e( 20 - 20) =      5.65324  eV     1   --> A              
     e( 21 - 21) =      5.69605  eV     1   --> A              
     e( 22 - 22) =      5.98218  eV     1   --> A              
     e( 23 - 23) =      6.15265  eV     1   --> A              
     e( 24 - 24) =      6.67876  eV     1   --> A              

 **************************************************************************

 **************************************************************************

                    xk=(   0.12000,   0.57735,   0.00000  )

     Band symmetry, C_1 (1)     point group:

     e(  1 -  1) =    -38.31814  eV     1   --> A              
     e(  2 -  2) =    -38.31420  eV     1   --> A              
     e(  3 -  3) =    -38.27405  eV     1   --> A              
     e(  4 -  4) =    -38.27302  eV     1   --> A              
     e(  5 -  5) =    -38.25459  eV     1   --> A              
     e(  6 -  6) =    -26.14098  eV     1   --> A              
     e(  7 -  7) =    -26.13423  eV     1   --> A              
     e(  8 -  8) =    -26.08755  eV     1   --> A              
     e(  9 -  9) =    -26.08439  eV     1   --> A              
     e( 10 - 10) =    -26.05899  eV     1   --> A              
     e( 11 - 11) =    -12.43544  eV     1   --> A              
     e( 12 - 12) =     -9.51267  eV     1   --> A              
     e( 13 - 13) =     -5.04349  eV     1   --> A              
     e( 14 - 14) =     -4.08761  eV     1   --> A              
     e( 15 - 15) =     -3.32881  eV     1   --> A              
     e( 16 - 16) =      0.50787  eV     1   --> A              
     e( 17 - 17) =      0.91510  eV     1   --> A              
     e( 18 - 18) =      1.74089  eV     1   --> A              
     e( 19 - 19) =      3.86131  eV     1   --> A              
     e( 20 - 20) =      5.63918  eV     1   --> A              
     e( 21 - 21) =      5.67133  eV     1   --> A              
     e( 22 - 22) =      5.96695  eV     1   --> A              
     e( 23 - 23) =      6.16322  eV     1   --> A              
     e( 24 - 24) =      6.66896  eV     1   --> A              

 **************************************************************************

 **************************************************************************

                    xk=(   0.11333,   0.57735,   0.00000  )

     Band symmetry, C_1 (1)     point group:

     e(  1 -  1) =    -38.31819  eV     1   --> A              
     e(  2 -  2) =    -38.31417  eV     1   --> A              
     e(  3 -  3) =    -38.27406  eV     1   --> A              
     e(  4 -  4) =    -38.27301  eV     1   --> A              
     e(  5 -  5) =    -38.25459  eV     1   --> A              
     e(  6 -  6) =    -26.14105  eV     1   --> A              
     e(  7 -  7) =    -26.13418  eV     1   --> A              
     e(  8 -  8) =    -26.08757  eV     1   --> A              
     e(  9 -  9) =    -26.08436  eV     1   --> A              
     e( 10 - 10) =    -26.05900  eV     1   --> A              
     e( 11 - 11) =    -12.44268  eV     1   --> A              
     e( 12 - 12) =     -9.51160  eV     1   --> A              
     e( 13 - 13) =     -5.03140  eV     1   --> A              
     e( 14 - 14) =     -4.06106  eV     1   --> A              
     e( 15 - 15) =     -3.33085  eV     1   --> A              
     e( 16 - 16) =      0.49250  eV     1   --> A              
     e( 17 - 17) =      0.88305  eV     1   --> A              
     e( 18 - 18) =      1.75380  eV     1   --> A              
     e( 19 - 19) =      3.83636  eV     1   --> A              
     e( 20 - 20) =      5.62567  eV     1   --> A              
     e( 21 - 21) =      5.64672  eV     1   --> A              
     e( 22 - 22) =      5.95187  eV     1   --> A              
     e( 23 - 23) =      6.17101  eV     1   --> A              
     e( 24 - 24) =      6.65349  eV     1   --> A              

 **************************************************************************

 **************************************************************************

                    xk=(   0.10667,   0.57735,   0.00000  )

     Band symmetry, C_1 (1)     point group:

     e(  1 -  1) =    -38.31824  eV     1   --> A              
     e(  2 -  2) =    -38.31414  eV     1   --> A              
     e(  3 -  3) =    -38.27407  eV     1   --> A              
     e(  4 -  4) =    -38.27300  eV     1   --> A              
     e(  5 -  5) =    -38.25460  eV     1   --> A              
     e(  6 -  6) =    -26.14110  eV     1   --> A              
     e(  7 -  7) =    -26.13413  eV     1   --> A              
     e(  8 -  8) =    -26.08758  eV     1   --> A              
     e(  9 -  9) =    -26.08432  eV     1   --> A              
     e( 10 - 10) =    -26.05901  eV     1   --> A              
     e( 11 - 11) =    -12.44957  eV     1   --> A              
     e( 12 - 12) =     -9.51066  eV     1   --> A              
     e( 13 - 13) =     -5.02084  eV     1   --> A              
     e( 14 - 14) =     -4.03276  eV     1   --> A              
     e( 15 - 15) =     -3.33333  eV     1   --> A              
     e( 16 - 16) =      0.46659  eV     1   --> A              
     e( 17 - 17) =      0.86119  eV     1   --> A              
     e( 18 - 18) =      1.76814  eV     1   --> A              
     e( 19 - 19) =      3.81326  eV     1   --> A              
     e( 20 - 20) =      5.61276  eV     1   --> A              
     e( 21 - 21) =      5.62227  eV     1   --> A              
     e( 22 - 22) =      5.93716  eV     1   --> A              
     e( 23 - 23) =      6.17629  eV     1   --> A              
     e( 24 - 24) =      6.63576  eV     1   --> A              

 **************************************************************************

 **************************************************************************

                    xk=(   0.10000,   0.57735,   0.00000  )

     Band symmetry, C_1 (1)     point group:

     e(  1 -  1) =    -38.31829  eV     1   --> A              
     e(  2 -  2) =    -38.31411  eV     1   --> A              
     e(  3 -  3) =    -38.27407  eV     1   --> A              
     e(  4 -  4) =    -38.27299  eV     1   --> A              
     e(  5 -  5) =    -38.25461  eV     1   --> A              
     e(  6 -  6) =    -26.14116  eV     1   --> A              
     e(  7 -  7) =    -26.13408  eV     1   --> A              
     e(  8 -  8) =    -26.08760  eV     1   --> A              
     e(  9 -  9) =    -26.08429  eV     1   --> A              
     e( 10 - 10) =    -26.05902  eV     1   --> A              
     e( 11 - 11) =    -12.45611  eV     1   --> A              
     e( 12 - 12) =     -9.50985  eV     1   --> A              
     e( 13 - 13) =     -5.01171  eV     1   --> A              
     e( 14 - 14) =     -4.00299  eV     1   --> A              
     e( 15 - 15) =     -3.33625  eV     1   --> A              
     e( 16 - 16) =      0.43161  eV     1   --> A              
     e( 17 - 17) =      0.84836  eV     1   --> A              
     e( 18 - 18) =      1.78373  eV     1   --> A              
     e( 19 - 19) =      3.79195  eV     1   --> A              
     e( 20 - 20) =      5.59774  eV     1   --> A              
     e( 21 - 21) =      5.60081  eV     1   --> A              
     e( 22 - 22) =      5.92294  eV     1   --> A              
     e( 23 - 23) =      6.17945  eV     1   --> A              
     e( 24 - 24) =      6.61734  eV     1   --> A              

 **************************************************************************

 **************************************************************************

                    xk=(   0.09333,   0.57735,   0.00000  )

     Band symmetry, C_1 (1)     point group:

     e(  1 -  1) =    -38.31833  eV     1   --> A              
     e(  2 -  2) =    -38.31408  eV     1   --> A              
     e(  3 -  3) =    -38.27408  eV     1   --> A              
     e(  4 -  4) =    -38.27297  eV     1   --> A              
     e(  5 -  5) =    -38.25461  eV     1   --> A              
     e(  6 -  6) =    -26.14122  eV     1   --> A              
     e(  7 -  7) =    -26.13404  eV     1   --> A              
     e(  8 -  8) =    -26.08761  eV     1   --> A              
     e(  9 -  9) =    -26.08427  eV     1   --> A              
     e( 10 - 10) =    -26.05902  eV     1   --> A              
     e( 11 - 11) =    -12.46228  eV     1   --> A              
     e( 12 - 12) =     -9.50915  eV     1   --> A              
     e( 13 - 13) =     -5.00389  eV     1   --> A              
     e( 14 - 14) =     -3.97209  eV     1   --> A              
     e( 15 - 15) =     -3.33961  eV     1   --> A              
     e( 16 - 16) =      0.39009  eV     1   --> A              
     e( 17 - 17) =      0.84239  eV     1   --> A              
     e( 18 - 18) =      1.80034  eV     1   --> A              
     e( 19 - 19) =      3.77234  eV     1   --> A              
     e( 20 - 20) =      5.57393  eV     1   --> A              
     e( 21 - 21) =      5.58915  eV     1   --> A              
     e( 22 - 22) =      5.90934  eV     1   --> A              
     e( 23 - 23) =      6.18092  eV     1   --> A              
     e( 24 - 24) =      6.59895  eV     1   --> A              

 **************************************************************************

 **************************************************************************

                    xk=(   0.08667,   0.57735,   0.00000  )

     Band symmetry, C_1 (1)     point group:

     e(  1 -  1) =    -38.31837  eV     1   --> A              
     e(  2 -  2) =    -38.31405  eV     1   --> A              
     e(  3 -  3) =    -38.27408  eV     1   --> A              
     e(  4 -  4) =    -38.27296  eV     1   --> A              
     e(  5 -  5) =    -38.25462  eV     1   --> A              
     e(  6 -  6) =    -26.14127  eV     1   --> A              
     e(  7 -  7) =    -26.13400  eV     1   --> A              
     e(  8 -  8) =    -26.08763  eV     1   --> A              
     e(  9 -  9) =    -26.08424  eV     1   --> A              
     e( 10 - 10) =    -26.05903  eV     1   --> A              
     e( 11 - 11) =    -12.46809  eV     1   --> A              
     e( 12 - 12) =     -9.50855  eV     1   --> A              
     e( 13 - 13) =     -4.99725  eV     1   --> A              
     e( 14 - 14) =     -3.94040  eV     1   --> A              
     e( 15 - 15) =     -3.34342  eV     1   --> A              
     e( 16 - 16) =      0.34466  eV     1   --> A              
     e( 17 - 17) =      0.84102  eV     1   --> A              
     e( 18 - 18) =      1.81773  eV     1   --> A              
     e( 19 - 19) =      3.75435  eV     1   --> A              
     e( 20 - 20) =      5.55038  eV     1   --> A              
     e( 21 - 21) =      5.57835  eV     1   --> A              
     e( 22 - 22) =      5.89643  eV     1   --> A              
     e( 23 - 23) =      6.18107  eV     1   --> A              
     e( 24 - 24) =      6.58097  eV     1   --> A              

 **************************************************************************

 **************************************************************************

                    xk=(   0.08000,   0.57735,   0.00000  )

     Band symmetry, C_1 (1)     point group:

     e(  1 -  1) =    -38.31841  eV     1   --> A              
     e(  2 -  2) =    -38.31403  eV     1   --> A              
     e(  3 -  3) =    -38.27409  eV     1   --> A              
     e(  4 -  4) =    -38.27295  eV     1   --> A              
     e(  5 -  5) =    -38.25462  eV     1   --> A              
     e(  6 -  6) =    -26.14132  eV     1   --> A              
     e(  7 -  7) =    -26.13396  eV     1   --> A              
     e(  8 -  8) =    -26.08764  eV     1   --> A              
     e(  9 -  9) =    -26.08421  eV     1   --> A              
     e( 10 - 10) =    -26.05903  eV     1   --> A              
     e( 11 - 11) =    -12.47351  eV     1   --> A              
     e( 12 - 12) =     -9.50804  eV     1   --> A              
     e( 13 - 13) =     -4.99167  eV     1   --> A              
     e( 14 - 14) =     -3.90827  eV     1   --> A              
     e( 15 - 15) =     -3.34768  eV     1   --> A              
     e( 16 - 16) =      0.29751  eV     1   --> A              
     e( 17 - 17) =      0.84246  eV     1   --> A              
     e( 18 - 18) =      1.83560  eV     1   --> A              
     e( 19 - 19) =      3.73793  eV     1   --> A              
     e( 20 - 20) =      5.52737  eV     1   --> A              
     e( 21 - 21) =      5.56832  eV     1   --> A              
     e( 22 - 22) =      5.88428  eV     1   --> A              
     e( 23 - 23) =      6.18024  eV     1   --> A              
     e( 24 - 24) =      6.56366  eV     1   --> A              

 **************************************************************************

 **************************************************************************

                    xk=(   0.07333,   0.57735,   0.00000  )

     Band symmetry, C_1 (1)     point group:

     e(  1 -  1) =    -38.31844  eV     1   --> A              
     e(  2 -  2) =    -38.31401  eV     1   --> A              
     e(  3 -  3) =    -38.27410  eV     1   --> A              
     e(  4 -  4) =    -38.27294  eV     1   --> A              
     e(  5 -  5) =    -38.25462  eV     1   --> A              
     e(  6 -  6) =    -26.14136  eV     1   --> A              
     e(  7 -  7) =    -26.13392  eV     1   --> A              
     e(  8 -  8) =    -26.08765  eV     1   --> A              
     e(  9 -  9) =    -26.08419  eV     1   --> A              
     e( 10 - 10) =    -26.05904  eV     1   --> A              
     e( 11 - 11) =    -12.47854  eV     1   --> A              
     e( 12 - 12) =     -9.50761  eV     1   --> A              
     e( 13 - 13) =     -4.98702  eV     1   --> A              
     e( 14 - 14) =     -3.87608  eV     1   --> A              
     e( 15 - 15) =     -3.35239  eV     1   --> A              
     e( 16 - 16) =      0.25030  eV     1   --> A              
     e( 17 - 17) =      0.84548  eV     1   --> A              
     e( 18 - 18) =      1.85366  eV     1   --> A              
     e( 19 - 19) =      3.72301  eV     1   --> A              
     e( 20 - 20) =      5.50508  eV     1   --> A              
     e( 21 - 21) =      5.55906  eV     1   --> A              
     e( 22 - 22) =      5.87296  eV     1   --> A              
     e( 23 - 23) =      6.17873  eV     1   --> A              
     e( 24 - 24) =      6.54722  eV     1   --> A              

 **************************************************************************

 **************************************************************************

                    xk=(   0.06667,   0.57735,   0.00000  )

     Band symmetry, C_1 (1)     point group:

     e(  1 -  1) =    -38.31848  eV     1   --> A              
     e(  2 -  2) =    -38.31399  eV     1   --> A              
     e(  3 -  3) =    -38.27410  eV     1   --> A              
     e(  4 -  4) =    -38.27293  eV     1   --> A              
     e(  5 -  5) =    -38.25463  eV     1   --> A              
     e(  6 -  6) =    -26.14140  eV     1   --> A              
     e(  7 -  7) =    -26.13389  eV     1   --> A              
     e(  8 -  8) =    -26.08766  eV     1   --> A              
     e(  9 -  9) =    -26.08417  eV     1   --> A              
     e( 10 - 10) =    -26.05905  eV     1   --> A              
     e( 11 - 11) =    -12.48314  eV     1   --> A              
     e( 12 - 12) =     -9.50725  eV     1   --> A              
     e( 13 - 13) =     -4.98317  eV     1   --> A              
     e( 14 - 14) =     -3.84420  eV     1   --> A              
     e( 15 - 15) =     -3.35756  eV     1   --> A              
     e( 16 - 16) =      0.20429  eV     1   --> A              
     e( 17 - 17) =      0.84925  eV     1   --> A              
     e( 18 - 18) =      1.87160  eV     1   --> A              
     e( 19 - 19) =      3.70955  eV     1   --> A              
     e( 20 - 20) =      5.48368  eV     1   --> A              
     e( 21 - 21) =      5.55058  eV     1   --> A              
     e( 22 - 22) =      5.86251  eV     1   --> A              
     e( 23 - 23) =      6.17676  eV     1   --> A              
     e( 24 - 24) =      6.53180  eV     1   --> A              

 **************************************************************************

 **************************************************************************

                    xk=(   0.06000,   0.57735,   0.00000  )

     Band symmetry, C_1 (1)     point group:

     e(  1 -  1) =    -38.31851  eV     1   --> A              
     e(  2 -  2) =    -38.31397  eV     1   --> A              
     e(  3 -  3) =    -38.27410  eV     1   --> A              
     e(  4 -  4) =    -38.27292  eV     1   --> A              
     e(  5 -  5) =    -38.25463  eV     1   --> A              
     e(  6 -  6) =    -26.14144  eV     1   --> A              
     e(  7 -  7) =    -26.13386  eV     1   --> A              
     e(  8 -  8) =    -26.08767  eV     1   --> A              
     e(  9 -  9) =    -26.08415  eV     1   --> A              
     e( 10 - 10) =    -26.05905  eV     1   --> A              
     e( 11 - 11) =    -12.48736  eV     1   --> A              
     e( 12 - 12) =     -9.50696  eV     1   --> A              
     e( 13 - 13) =     -4.98002  eV     1   --> A              
     e( 14 - 14) =     -3.81302  eV     1   --> A              
     e( 15 - 15) =     -3.36318  eV     1   --> A              
     e( 16 - 16) =      0.16041  eV     1   --> A              
     e( 17 - 17) =      0.85324  eV     1   --> A              
     e( 18 - 18) =      1.88907  eV     1   --> A              
     e( 19 - 19) =      3.69750  eV     1   --> A              
     e( 20 - 20) =      5.46338  eV     1   --> A              
     e( 21 - 21) =      5.54289  eV     1   --> A              
     e( 22 - 22) =      5.85296  eV     1   --> A              
     e( 23 - 23) =      6.17454  eV     1   --> A              
     e( 24 - 24) =      6.51753  eV     1   --> A              

 **************************************************************************

 **************************************************************************

                    xk=(   0.05333,   0.57735,   0.00000  )

     Band symmetry, C_1 (1)     point group:

     e(  1 -  1) =    -38.31853  eV     1   --> A              
     e(  2 -  2) =    -38.31395  eV     1   --> A              
     e(  3 -  3) =    -38.27411  eV     1   --> A              
     e(  4 -  4) =    -38.27292  eV     1   --> A              
     e(  5 -  5) =    -38.25464  eV     1   --> A              
     e(  6 -  6) =    -26.14147  eV     1   --> A              
     e(  7 -  7) =    -26.13383  eV     1   --> A              
     e(  8 -  8) =    -26.08768  eV     1   --> A              
     e(  9 -  9) =    -26.08413  eV     1   --> A              
     e( 10 - 10) =    -26.05905  eV     1   --> A              
     e( 11 - 11) =    -12.49114  eV     1   --> A              
     e( 12 - 12) =     -9.50672  eV     1   --> A              
     e( 13 - 13) =     -4.97746  eV     1   --> A              
     e( 14 - 14) =     -3.78294  eV     1   --> A              
     e( 15 - 15) =     -3.36921  eV     1   --> A              
     e( 16 - 16) =      0.11943  eV     1   --> A              
     e( 17 - 17) =      0.85715  eV     1   --> A              
     e( 18 - 18) =      1.90576  eV     1   --> A              
     e( 19 - 19) =      3.68682  eV     1   --> A              
     e( 20 - 20) =      5.44441  eV     1   --> A              
     e( 21 - 21) =      5.53599  eV     1   --> A              
     e( 22 - 22) =      5.84436  eV     1   --> A              
     e( 23 - 23) =      6.17222  eV     1   --> A              
     e( 24 - 24) =      6.50452  eV     1   --> A              

[...]
     e(  8 -  8) =    -26.08706  eV     1   --> A              
     e(  9 -  9) =    -26.08493  eV     1   --> A              
     e( 10 - 10) =    -26.05898  eV     1   --> A              
     e( 11 - 11) =    -12.42947  eV     1   --> A              
     e( 12 - 12) =     -9.39798  eV     1   --> A              
     e( 13 - 13) =     -5.28146  eV     1   --> A              
     e( 14 - 14) =     -4.43211  eV     1   --> A              
     e( 15 - 15) =     -3.11183  eV     1   --> A              
     e( 16 - 16) =      0.25170  eV     1   --> A              
     e( 17 - 17) =      1.33698  eV     1   --> A              
     e( 18 - 18) =      2.24480  eV     1   --> A              
     e( 19 - 19) =      4.92450  eV     1   --> A              
     e( 20 - 20) =      5.09039  eV     1   --> A              
     e( 21 - 21) =      5.41449  eV     1   --> A              
     e( 22 - 22) =      5.58409  eV     1   --> A              
     e( 23 - 23) =      5.97568  eV     1   --> A              
     e( 24 - 24) =      6.76710  eV     1   --> A              

 **************************************************************************

 **************************************************************************

                    xk=(   0.27333,   0.47343,   0.00000  )

     Band symmetry, C_1 (1)     point group:

     e(  1 -  1) =    -38.31706  eV     1   --> A              
     e(  2 -  2) =    -38.31511  eV     1   --> A              
     e(  3 -  3) =    -38.27382  eV     1   --> A              
     e(  4 -  4) =    -38.27332  eV     1   --> A              
     e(  5 -  5) =    -38.25455  eV     1   --> A              
     e(  6 -  6) =    -26.13966  eV     1   --> A              
     e(  7 -  7) =    -26.13543  eV     1   --> A              
     e(  8 -  8) =    -26.08707  eV     1   --> A              
     e(  9 -  9) =    -26.08500  eV     1   --> A              
     e( 10 - 10) =    -26.05894  eV     1   --> A              
     e( 11 - 11) =    -12.38650  eV     1   --> A              
     e( 12 - 12) =     -9.43911  eV     1   --> A              
     e( 13 - 13) =     -5.34176  eV     1   --> A              
     e( 14 - 14) =     -4.38077  eV     1   --> A              
     e( 15 - 15) =     -3.16714  eV     1   --> A              
     e( 16 - 16) =      0.19662  eV     1   --> A              
     e( 17 - 17) =      1.41277  eV     1   --> A              
     e( 18 - 18) =      2.23436  eV     1   --> A              
     e( 19 - 19) =      5.02157  eV     1   --> A              
     e( 20 - 20) =      5.19936  eV     1   --> A              
     e( 21 - 21) =      5.42123  eV     1   --> A              
     e( 22 - 22) =      5.63888  eV     1   --> A              
     e( 23 - 23) =      6.05944  eV     1   --> A              
     e( 24 - 24) =      6.84290  eV     1   --> A              

 **************************************************************************

 **************************************************************************

                    xk=(   0.28000,   0.48497,   0.00000  )

     Band symmetry, C_1 (1)     point group:

     e(  1 -  1) =    -38.31695  eV     1   --> A              
     e(  2 -  2) =    -38.31515  eV     1   --> A              
     e(  3 -  3) =    -38.27381  eV     1   --> A              
     e(  4 -  4) =    -38.27335  eV     1   --> A              
     e(  5 -  5) =    -38.25451  eV     1   --> A              
     e(  6 -  6) =    -26.13956  eV     1   --> A              
     e(  7 -  7) =    -26.13547  eV     1   --> A              
     e(  8 -  8) =    -26.08708  eV     1   --> A              
     e(  9 -  9) =    -26.08507  eV     1   --> A              
     e( 10 - 10) =    -26.05890  eV     1   --> A              
     e( 11 - 11) =    -12.34744  eV     1   --> A              
     e( 12 - 12) =     -9.47591  eV     1   --> A              
     e( 13 - 13) =     -5.39692  eV     1   --> A              
     e( 14 - 14) =     -4.32911  eV     1   --> A              
     e( 15 - 15) =     -3.22090  eV     1   --> A              
     e( 16 - 16) =      0.14498  eV     1   --> A              
     e( 17 - 17) =      1.48926  eV     1   --> A              
     e( 18 - 18) =      2.21971  eV     1   --> A              
     e( 19 - 19) =      5.11668  eV     1   --> A              
     e( 20 - 20) =      5.30766  eV     1   --> A              
     e( 21 - 21) =      5.40927  eV     1   --> A              
     e( 22 - 22) =      5.71118  eV     1   --> A              
     e( 23 - 23) =      6.15945  eV     1   --> A              
     e( 24 - 24) =      6.92428  eV     1   --> A              

 **************************************************************************

 **************************************************************************

                    xk=(   0.28667,   0.49652,   0.00000  )

     Band symmetry, C_1 (1)     point group:

     e(  1 -  1) =    -38.31683  eV     1   --> A              
     e(  2 -  2) =    -38.31520  eV     1   --> A              
     e(  3 -  3) =    -38.27380  eV     1   --> A              
     e(  4 -  4) =    -38.27339  eV     1   --> A              
     e(  5 -  5) =    -38.25449  eV     1   --> A              
     e(  6 -  6) =    -26.13947  eV     1   --> A              
     e(  7 -  7) =    -26.13552  eV     1   --> A              
     e(  8 -  8) =    -26.08708  eV     1   --> A              
     e(  9 -  9) =    -26.08513  eV     1   --> A              
     e( 10 - 10) =    -26.05886  eV     1   --> A              
     e( 11 - 11) =    -12.31268  eV     1   --> A              
     e( 12 - 12) =     -9.50811  eV     1   --> A              
     e( 13 - 13) =     -5.44659  eV     1   --> A              
     e( 14 - 14) =     -4.27823  eV     1   --> A              
     e( 15 - 15) =     -3.27239  eV     1   --> A              
     e( 16 - 16) =      0.09751  eV     1   --> A              
     e( 17 - 17) =      1.56545  eV     1   --> A              
     e( 18 - 18) =      2.20106  eV     1   --> A              
     e( 19 - 19) =      5.20834  eV     1   --> A              
     e( 20 - 20) =      5.38408  eV     1   --> A              
     e( 21 - 21) =      5.41787  eV     1   --> A              
     e( 22 - 22) =      5.80015  eV     1   --> A              
     e( 23 - 23) =      6.27173  eV     1   --> A              
     e( 24 - 24) =      7.00088  eV     1   --> A              

 **************************************************************************

 **************************************************************************

                    xk=(   0.29333,   0.50807,   0.00000  )

     Band symmetry, C_1 (1)     point group:

     e(  1 -  1) =    -38.31672  eV     1   --> A              
     e(  2 -  2) =    -38.31526  eV     1   --> A              
     e(  3 -  3) =    -38.27379  eV     1   --> A              
     e(  4 -  4) =    -38.27342  eV     1   --> A              
     e(  5 -  5) =    -38.25446  eV     1   --> A              
     e(  6 -  6) =    -26.13937  eV     1   --> A              
     e(  7 -  7) =    -26.13557  eV     1   --> A              
     e(  8 -  8) =    -26.08707  eV     1   --> A              
     e(  9 -  9) =    -26.08519  eV     1   --> A              
     e( 10 - 10) =    -26.05883  eV     1   --> A              
     e( 11 - 11) =    -12.28244  eV     1   --> A              
     e( 12 - 12) =     -9.53557  eV     1   --> A              
     e( 13 - 13) =     -5.49045  eV     1   --> A              
     e( 14 - 14) =     -4.22933  eV     1   --> A              
     e( 15 - 15) =     -3.32075  eV     1   --> A              
     e( 16 - 16) =      0.05483  eV     1   --> A              
     e( 17 - 17) =      1.64030  eV     1   --> A              
     e( 18 - 18) =      2.17874  eV     1   --> A              
     e( 19 - 19) =      5.29565  eV     1   --> A              
     e( 20 - 20) =      5.35477  eV     1   --> A              
     e( 21 - 21) =      5.52817  eV     1   --> A              
     e( 22 - 22) =      5.90364  eV     1   --> A              
     e( 23 - 23) =      6.39215  eV     1   --> A              
     e( 24 - 24) =      7.02935  eV     1   --> A              

 **************************************************************************

 **************************************************************************

                    xk=(   0.30000,   0.51962,   0.00000  )

     Band symmetry, C_1 (1)     point group:

     e(  1 -  1) =    -38.31661  eV     1   --> A              
     e(  2 -  2) =    -38.31534  eV     1   --> A              
     e(  3 -  3) =    -38.27377  eV     1   --> A              
     e(  4 -  4) =    -38.27346  eV     1   --> A              
     e(  5 -  5) =    -38.25444  eV     1   --> A              
     e(  6 -  6) =    -26.13929  eV     1   --> A              
     e(  7 -  7) =    -26.13563  eV     1   --> A              
     e(  8 -  8) =    -26.08707  eV     1   --> A              
     e(  9 -  9) =    -26.08525  eV     1   --> A              
     e( 10 - 10) =    -26.05881  eV     1   --> A              
     e( 11 - 11) =    -12.25699  eV     1   --> A              
     e( 12 - 12) =     -9.55821  eV     1   --> A              
     e( 13 - 13) =     -5.52820  eV     1   --> A              
     e( 14 - 14) =     -4.18384  eV     1   --> A              
     e( 15 - 15) =     -3.36491  eV     1   --> A              
     e( 16 - 16) =      0.01751  eV     1   --> A              
     e( 17 - 17) =      1.71269  eV     1   --> A              
     e( 18 - 18) =      2.15317  eV     1   --> A              
     e( 19 - 19) =      5.32314  eV     1   --> A              
     e( 20 - 20) =      5.37845  eV     1   --> A              
     e( 21 - 21) =      5.64163  eV     1   --> A              
     e( 22 - 22) =      6.01882  eV     1   --> A              
     e( 23 - 23) =      6.51635  eV     1   --> A              
     e( 24 - 24) =      6.94726  eV     1   --> A              

 **************************************************************************

 **************************************************************************

                    xk=(   0.30667,   0.53116,   0.00000  )

     Band symmetry, C_1 (1)     point group:

     e(  1 -  1) =    -38.31650  eV     1   --> A              
     e(  2 -  2) =    -38.31541  eV     1   --> A              
     e(  3 -  3) =    -38.27375  eV     1   --> A              
     e(  4 -  4) =    -38.27349  eV     1   --> A              
     e(  5 -  5) =    -38.25443  eV     1   --> A              
     e(  6 -  6) =    -26.13921  eV     1   --> A              
     e(  7 -  7) =    -26.13568  eV     1   --> A              
     e(  8 -  8) =    -26.08705  eV     1   --> A              
     e(  9 -  9) =    -26.08529  eV     1   --> A              
     e( 10 - 10) =    -26.05879  eV     1   --> A              
     e( 11 - 11) =    -12.23636  eV     1   --> A              
     e( 12 - 12) =     -9.57610  eV     1   --> A              
     e( 13 - 13) =     -5.55955  eV     1   --> A              
     e( 14 - 14) =     -4.14335  eV     1   --> A              
     e( 15 - 15) =     -3.40361  eV     1   --> A              
     e( 16 - 16) =     -0.01394  eV     1   --> A              
     e( 17 - 17) =      1.78141  eV     1   --> A              
     e( 18 - 18) =      2.12480  eV     1   --> A              
     e( 19 - 19) =      5.29296  eV     1   --> A              
     e( 20 - 20) =      5.45684  eV     1   --> A              
     e( 21 - 21) =      5.75671  eV     1   --> A              
     e( 22 - 22) =      6.14286  eV     1   --> A              
     e( 23 - 23) =      6.63669  eV     1   --> A              
     e( 24 - 24) =      6.84577  eV     1   --> A              

 **************************************************************************

 **************************************************************************

                    xk=(   0.31333,   0.54271,   0.00000  )

     Band symmetry, C_1 (1)     point group:

     e(  1 -  1) =    -38.31639  eV     1   --> A              
     e(  2 -  2) =    -38.31549  eV     1   --> A              
     e(  3 -  3) =    -38.27373  eV     1   --> A              
     e(  4 -  4) =    -38.27353  eV     1   --> A              
     e(  5 -  5) =    -38.25442  eV     1   --> A              
     e(  6 -  6) =    -26.13914  eV     1   --> A              
     e(  7 -  7) =    -26.13573  eV     1   --> A              
     e(  8 -  8) =    -26.08704  eV     1   --> A              
     e(  9 -  9) =    -26.08533  eV     1   --> A              
     e( 10 - 10) =    -26.05877  eV     1   --> A              
     e( 11 - 11) =    -12.22060  eV     1   --> A              
     e( 12 - 12) =     -9.58940  eV     1   --> A              
     e( 13 - 13) =     -5.58426  eV     1   --> A              
     e( 14 - 14) =     -4.10964  eV     1   --> A              
     e( 15 - 15) =     -3.43540  eV     1   --> A              
     e( 16 - 16) =     -0.03903  eV     1   --> A              
     e( 17 - 17) =      1.84513  eV     1   --> A              
     e( 18 - 18) =      2.09416  eV     1   --> A              
     e( 19 - 19) =      5.26664  eV     1   --> A              
     e( 20 - 20) =      5.53024  eV     1   --> A              
     e( 21 - 21) =      5.87005  eV     1   --> A              
     e( 22 - 22) =      6.27312  eV     1   --> A              
     e( 23 - 23) =      6.71296  eV     1   --> A              
     e( 24 - 24) =      6.76624  eV     1   --> A              

 **************************************************************************

 **************************************************************************

                    xk=(   0.32000,   0.55426,   0.00000  )

     Band symmetry, C_1 (1)     point group:

     e(  1 -  1) =    -38.31630  eV     1   --> A              
     e(  2 -  2) =    -38.31557  eV     1   --> A              
     e(  3 -  3) =    -38.27370  eV     1   --> A              
     e(  4 -  4) =    -38.27356  eV     1   --> A              
     e(  5 -  5) =    -38.25441  eV     1   --> A              
     e(  6 -  6) =    -26.13909  eV     1   --> A              
     e(  7 -  7) =    -26.13577  eV     1   --> A              
     e(  8 -  8) =    -26.08703  eV     1   --> A              
     e(  9 -  9) =    -26.08536  eV     1   --> A              
     e( 10 - 10) =    -26.05876  eV     1   --> A              
     e( 11 - 11) =    -12.20965  eV     1   --> A              
     e( 12 - 12) =     -9.59839  eV     1   --> A              
     e( 13 - 13) =     -5.60210  eV     1   --> A              
     e( 14 - 14) =     -4.08448  eV     1   --> A              
     e( 15 - 15) =     -3.45887  eV     1   --> A              
     e( 16 - 16) =     -0.05736  eV     1   --> A              
     e( 17 - 17) =      1.90239  eV     1   --> A              
     e( 18 - 18) =      2.06179  eV     1   --> A              
     e( 19 - 19) =      5.24608  eV     1   --> A              
     e( 20 - 20) =      5.59620  eV     1   --> A              
     e( 21 - 21) =      5.97383  eV     1   --> A              
     e( 22 - 22) =      6.40677  eV     1   --> A              
     e( 23 - 23) =      6.63384  eV     1   --> A              
     e( 24 - 24) =      6.78015  eV     1   --> A              

 **************************************************************************

 **************************************************************************

                    xk=(   0.32667,   0.56580,   0.00000  )

     Band symmetry, C_1 (1)     point group:

     e(  1 -  1) =    -38.31622  eV     1   --> A              
     e(  2 -  2) =    -38.31563  eV     1   --> A              
     e(  3 -  4) =    -38.27367  eV     2   -->   2 A              
     e(  5 -  5) =    -38.25440  eV     1   --> A              
     e(  6 -  6) =    -26.13905  eV     1   --> A              
     e(  7 -  7) =    -26.13579  eV     1   --> A              
     e(  8 -  8) =    -26.08702  eV     1   --> A              
     e(  9 -  9) =    -26.08538  eV     1   --> A              
     e( 10 - 10) =    -26.05876  eV     1   --> A              
     e( 11 - 11) =    -12.20323  eV     1   --> A              
     e( 12 - 12) =     -9.60344  eV     1   --> A              
     e( 13 - 13) =     -5.61289  eV     1   --> A              
     e( 14 - 14) =     -4.06919  eV     1   --> A              
     e( 15 - 15) =     -3.47296  eV     1   --> A              
     e( 16 - 16) =     -0.06855  eV     1   --> A              
     e( 17 - 17) =      1.95139  eV     1   --> A              
     e( 18 - 18) =      2.02851  eV     1   --> A              
     e( 19 - 19) =      5.23283  eV     1   --> A              
     e( 20 - 20) =      5.64823  eV     1   --> A              
     e( 21 - 21) =      6.05024  eV     1   --> A              
     e( 22 - 22) =      6.53810  eV     1   --> A              
     e( 23 - 23) =      6.56035  eV     1   --> A              
     e( 24 - 24) =      6.73133  eV     1   --> A              

 **************************************************************************

 **************************************************************************

                    xk=(   0.33333,   0.57735,   0.00000  )

     point group C_3 (3)    
     there are  3 classes
     the character table:

       E     C3    C3^2 
A      1.00  1.00  1.00
E      1.00 -0.50 -0.50
E*     1.00 -0.50 -0.50
     imaginary part
A      0.00  0.00  0.00
E      0.00  0.87 -0.87
E*     0.00 -0.87  0.87

     the symmetry operations in each class and the name of the first element:

     E        1
                                                                 
     C3       2
                                                                 
     C3^2     3
                                                                 

     Band symmetry, C_3 (3)     point group:

     e(  1 -  1) =    -38.31619  eV     1   --> A              
     e(  2 -  2) =    -38.31566  eV     1   --> E              
     e(  3 -  4) =    -38.27365  eV     2   --> A              
     e(  3 -  4) =    -38.27365  eV     2   --> E              
     e(  5 -  5) =    -38.25440  eV     1   --> E*             
     e(  6 -  6) =    -26.13904  eV     1   --> E*             
     e(  7 -  7) =    -26.13580  eV     1   --> E              
     e(  8 -  8) =    -26.08702  eV     1   --> E*             
     e(  9 -  9) =    -26.08538  eV     1   --> E              
     e( 10 - 10) =    -26.05875  eV     1   --> A              
     e( 11 - 11) =    -12.20116  eV     1   --> E*             
     e( 12 - 12) =     -9.60502  eV     1   --> A              
     e( 13 - 13) =     -5.61650  eV     1   --> E              
     e( 14 - 14) =     -4.06420  eV     1   --> E*             
     e( 15 - 15) =     -3.47750  eV     1   --> A              
     e( 16 - 16) =     -0.07233  eV     1   --> E              
     e( 17 - 17) =      1.98341  eV     1   --> E*             
     e( 18 - 18) =      2.00197  eV     1   --> A              
     e( 19 - 19) =      5.22817  eV     1   --> E              
     e( 20 - 20) =      5.67115  eV     1   --> A              
     e( 21 - 21) =      6.07550  eV     1   --> E*             
     e( 22 - 22) =      6.53800  eV     1   --> E              
     e( 23 - 23) =      6.62171  eV     1   --> E*             
     e( 24 - 24) =      6.68586  eV     1   --> A              

 **************************************************************************
 
     BANDS        :     17.43s CPU     18.68s WALL

 
   This run was terminated on:   8:55:46  12Sep2021            

=------------------------------------------------------------------------------=
   JOB DONE.
=------------------------------------------------------------------------------=
