
     Program PWSCF v.6.7MaX starts on 12Sep2021 at  8:54:43 

     This program is part of the open-source Quantum ESPRESSO suite
     for quantum simulation of materials; please cite
         "P. Giannozzi et al., J. Phys.:Condens. Matter 21 395502 (2009);
         "P. Giannozzi et al., J. Phys.:Condens. Matter 29 465901 (2017);
          URL http://www.quantum-espresso.org", 
     in publications or presentations arising from this work. More details at
     http://www.quantum-espresso.org/quote

     Parallel version (MPI), running on    20 processors

     MPI processes distributed on     1 nodes
     R & G space division:  proc/nbgrp/npool/nimage =      20
     Waiting for input...
     Reading input from standard input

     Current dimensions of program PWSCF are:
     Max number of different atomic species (ntypx) = 10
     Max number of k-points (npk) =  40000
     Max angular momentum in pseudopotentials (lmaxx) =  3

     Atomic positions and unit cell read from directory:
     ./work/GeTe-mono.save/
     Atomic positions from file used, from input discarded
 
     Message from routine read_pp_mesh:
     mesh size missing, using the one in header
     Message from routine read_pp_mesh:
     mesh size missing, using the one in header

     Subspace diagonalization in iterative solution of the eigenvalue problem:
     a serial algorithm will be used

     Message from routine setup:
     no reason to have ecutrho>4*ecutwfc
     Message from routine setup:
     using ibrav=0 with symmetry is DISCOURAGED, use correct ibrav instead
 
     Parallelization info
     --------------------
     sticks:   dense  smooth     PW     G-vecs:    dense   smooth      PW
     Min         116      38     11                22746     4364     675
     Max         117      39     12                22761     4379     687
     Sum        2335     769    223               455125    87447   13657
 


     bravais-lattice index     =            0
     lattice parameter (alat)  =       7.4847  a.u.
     unit-cell volume          =    1833.6240 (a.u.)^3
     number of atoms/cell      =            2
     number of atomic types    =            2
     number of electrons       =        30.00
     number of Kohn-Sham states=           24
     kinetic-energy cutoff     =      50.0000  Ry
     charge density cutoff     =     600.0000  Ry
     Exchange-correlation= PBE
                           (   1   4   3   4   0   0   0)

     celldm(1)=   7.484717  celldm(2)=   0.000000  celldm(3)=   0.000000
     celldm(4)=   0.000000  celldm(5)=   0.000000  celldm(6)=   0.000000

     crystal axes: (cart. coord. in units of alat)
               a(1) = (   1.000000   0.000000   0.000000 )  
               a(2) = (   0.500000   0.866025   0.000000 )  
               a(3) = (   0.000000   0.000000   5.049559 )  

     reciprocal axes: (cart. coord. in units 2 pi/alat)
               b(1) = (  1.000000 -0.577350  0.000000 )  
               b(2) = (  0.000000  1.154701  0.000000 )  
               b(3) = (  0.000000  0.000000  0.198037 )  


     PseudoPot. # 1 for Ge read from file:
     ../../../pseudo/Ge_ONCV_PBE-1.2.upf
     MD5 check sum: 9f45083245c564cb2163622d60d05ca9
     Pseudo is Norm-conserving, Zval = 14.0
     Generated using ONCVPSP code by D. R. Hamann
     Using radial grid of  602 points,  6 beta functions with: 
                l(1) =   0
                l(2) =   0
                l(3) =   1
                l(4) =   1
                l(5) =   2
                l(6) =   2

     PseudoPot. # 2 for Te read from file:
     ../../../pseudo/Te_ONCV_PBE-1.2.upf
     MD5 check sum: dd4de4dac1e38587f63aaf3700bb29d3
     Pseudo is Norm-conserving, Zval = 16.0
     Generated using ONCVPSP code by D. R. Hamann
     Using radial grid of  602 points,  6 beta functions with: 
                l(1) =   0
                l(2) =   0
                l(3) =   1
                l(4) =   1
                l(5) =   2
                l(6) =   2

     atomic species   valence    mass     pseudopotential
        Ge            14.00    72.63000     Ge( 1.00)
        Te            16.00   127.60000     Te( 1.00)

      6 Sym. Ops. (no inversion) found



   Cartesian axes

     site n.     atom                  positions (alat units)
         1           Ge  tau(   1) = (   0.0000000   0.0000000   0.0000000  )
         2           Te  tau(   2) = (   1.0000000   0.5773503   0.3928870  )

     number of k points=   151

     Number of k-points >= 100: set verbosity='high' to print them.

     Dense  grid:   455125 G-vectors     FFT dimensions: (  60,  60, 300)

     Smooth grid:    87447 G-vectors     FFT dimensions: (  36,  36, 180)

     Estimated max dynamical RAM per process >      12.76 MB

     Estimated total dynamical RAM >     255.18 MB

     The potential is recalculated from file :
     ./work/GeTe-mono.save/charge-density

     Starting wfcs are random

     Band Structure Calculation
     Davidson diagonalization with overlap
     c_bands:  1 eigenvalues not converged
     c_bands:  1 eigenvalues not converged
     c_bands:  1 eigenvalues not converged

     ethr =  3.33E-12,  avg # of iterations = 74.3

     total cpu time spent up to now is       42.9 secs

     End of band structure calculation

     Number of k-points >= 100: set verbosity='high' to print the bands.

     Writing output data file ./work/GeTe-mono.save/
 
     init_run     :      0.17s CPU      0.18s WALL (       1 calls)
     electrons    :     41.26s CPU     42.30s WALL (       1 calls)

     Called by init_run:
     wfcinit      :      0.00s CPU      0.00s WALL (       1 calls)
     potinit      :      0.03s CPU      0.04s WALL (       1 calls)
     hinit0       :      0.06s CPU      0.06s WALL (       1 calls)

     Called by electrons:
     c_bands      :     41.26s CPU     42.30s WALL (       1 calls)
     v_of_rho     :      0.02s CPU      0.02s WALL (       1 calls)

     Called by c_bands:
     init_us_2    :      0.02s CPU      0.02s WALL (     151 calls)
     cegterg      :     40.29s CPU     41.11s WALL (     632 calls)

     Called by *egterg:
     cdiaghg      :      7.21s CPU      7.41s WALL (   11369 calls)
     h_psi        :     29.10s CPU     29.79s WALL (   12001 calls)
     g_psi        :      0.21s CPU      0.22s WALL (   11218 calls)

     Called by h_psi:
     h_psi:calbec :      0.95s CPU      0.97s WALL (   12001 calls)
     vloc_psi     :     27.45s CPU     28.10s WALL (   12001 calls)
     add_vuspsi   :      0.58s CPU      0.59s WALL (   12001 calls)

     General routines
     calbec       :      0.93s CPU      0.95s WALL (   12001 calls)
     fft          :      0.01s CPU      0.01s WALL (      11 calls)
     ffts         :      0.00s CPU      0.00s WALL (       1 calls)
     fftw         :     24.91s CPU     25.50s WALL (  322726 calls)
     interpolate  :      0.00s CPU      0.00s WALL (       1 calls)
     davcio       :      0.11s CPU      0.13s WALL (     302 calls)
 
     Parallel routines
     fft_scatt_xy :      3.23s CPU      3.31s WALL (  322738 calls)
     fft_scatt_yz :     11.58s CPU     11.86s WALL (  322738 calls)
 
     PWSCF        :     42.17s CPU     43.64s WALL

 
   This run was terminated on:   8:55:27  12Sep2021            

=------------------------------------------------------------------------------=
   JOB DONE.
=------------------------------------------------------------------------------=
