
     Program PWSCF v.6.7MaX starts on 12Sep2021 at  8:53:18 

     This program is part of the open-source Quantum ESPRESSO suite
     for quantum simulation of materials; please cite
         "P. Giannozzi et al., J. Phys.:Condens. Matter 21 395502 (2009);
         "P. Giannozzi et al., J. Phys.:Condens. Matter 29 465901 (2017);
          URL http://www.quantum-espresso.org", 
     in publications or presentations arising from this work. More details at
     http://www.quantum-espresso.org/quote

     Parallel version (MPI), running on    20 processors

     MPI processes distributed on     1 nodes
     R & G space division:  proc/nbgrp/npool/nimage =      20
     Waiting for input...
     Reading input from standard input

     Current dimensions of program PWSCF are:
     Max number of different atomic species (ntypx) = 10
     Max number of k-points (npk) =  40000
     Max angular momentum in pseudopotentials (lmaxx) =  3
     Message from routine read_pp_mesh:
     mesh size missing, using the one in header
     Message from routine read_pp_mesh:
     mesh size missing, using the one in header

     Subspace diagonalization in iterative solution of the eigenvalue problem:
     a serial algorithm will be used

     Message from routine setup:
     no reason to have ecutrho>4*ecutwfc
     Message from routine setup:
     using ibrav=0 with symmetry is DISCOURAGED, use correct ibrav instead
 
     Parallelization info
     --------------------
     sticks:   dense  smooth     PW     G-vecs:    dense   smooth      PW
     Min         116      38     12                22746     4364     760
     Max         117      39     13                22761     4379     777
     Sum        2335     769    241               455125    87447   15299
 


     bravais-lattice index     =            0
     lattice parameter (alat)  =       7.4847  a.u.
     unit-cell volume          =    1833.6240 (a.u.)^3
     number of atoms/cell      =            2
     number of atomic types    =            2
     number of electrons       =        30.00
     number of Kohn-Sham states=           24
     kinetic-energy cutoff     =      50.0000  Ry
     charge density cutoff     =     600.0000  Ry
     scf convergence threshold =      1.0E-09
     mixing beta               =       0.7000
     number of iterations used =            8  plain     mixing
     Exchange-correlation= PBE
                           (   1   4   3   4   0   0   0)

     celldm(1)=   7.484717  celldm(2)=   0.000000  celldm(3)=   0.000000
     celldm(4)=   0.000000  celldm(5)=   0.000000  celldm(6)=   0.000000

     crystal axes: (cart. coord. in units of alat)
               a(1) = (   1.000000   0.000000   0.000000 )  
               a(2) = (   0.500000   0.866025   0.000000 )  
               a(3) = (   0.000000   0.000000   5.049559 )  

     reciprocal axes: (cart. coord. in units 2 pi/alat)
               b(1) = (  1.000000 -0.577350  0.000000 )  
               b(2) = (  0.000000  1.154701  0.000000 )  
               b(3) = (  0.000000  0.000000  0.198037 )  


     PseudoPot. # 1 for Ge read from file:
     ../../../pseudo/Ge_ONCV_PBE-1.2.upf
     MD5 check sum: 9f45083245c564cb2163622d60d05ca9
     Pseudo is Norm-conserving, Zval = 14.0
     Generated using ONCVPSP code by D. R. Hamann
     Using radial grid of  602 points,  6 beta functions with: 
                l(1) =   0
                l(2) =   0
                l(3) =   1
                l(4) =   1
                l(5) =   2
                l(6) =   2

     PseudoPot. # 2 for Te read from file:
     ../../../pseudo/Te_ONCV_PBE-1.2.upf
     MD5 check sum: dd4de4dac1e38587f63aaf3700bb29d3
     Pseudo is Norm-conserving, Zval = 16.0
     Generated using ONCVPSP code by D. R. Hamann
     Using radial grid of  602 points,  6 beta functions with: 
                l(1) =   0
                l(2) =   0
                l(3) =   1
                l(4) =   1
                l(5) =   2
                l(6) =   2

     atomic species   valence    mass     pseudopotential
        Ge            14.00    72.63000     Ge( 1.00)
        Te            16.00   127.60000     Te( 1.00)

      6 Sym. Ops. (no inversion) found



   Cartesian axes

     site n.     atom                  positions (alat units)
         1           Ge  tau(   1) = (   0.0000000   0.0000000   0.0000000  )
         2           Te  tau(   2) = (   1.0000000   0.5773503   0.3928870  )

     number of k points=   342

     Number of k-points >= 100: set verbosity='high' to print them.

     Dense  grid:   455125 G-vectors     FFT dimensions: (  60,  60, 300)

     Smooth grid:    87447 G-vectors     FFT dimensions: (  36,  36, 180)

     Estimated max dynamical RAM per process >      87.58 MB

     Estimated total dynamical RAM >       1.71 GB

     Initial potential from superposition of free atoms

     starting charge   29.90735, renormalised to   30.00000

     negative rho (up, down):  3.472E-04 0.000E+00
     Starting wfcs are random

     total cpu time spent up to now is        2.6 secs

     Self-consistent Calculation

     iteration #  1     ecut=    50.00 Ry     beta= 0.70
     Davidson diagonalization with overlap
     ethr =  1.00E-02,  avg # of iterations = 10.7

     Threshold (ethr) on eigenvalues was too large:
     Diagonalizing with lowered threshold

     Davidson diagonalization with overlap
     c_bands:  1 eigenvalues not converged
     ethr =  7.69E-05,  avg # of iterations =  7.6

     negative rho (up, down):  2.520E-05 0.000E+00

     total cpu time spent up to now is       32.0 secs

     total energy              =    -316.35185600 Ry
     estimated scf accuracy    <       0.01827169 Ry

     iteration #  2     ecut=    50.00 Ry     beta= 0.70
     Davidson diagonalization with overlap
     ethr =  6.09E-05,  avg # of iterations =  2.6

     negative rho (up, down):  8.406E-06 0.000E+00

     total cpu time spent up to now is       38.2 secs

     total energy              =    -316.35396108 Ry
     estimated scf accuracy    <       0.00355611 Ry

     iteration #  3     ecut=    50.00 Ry     beta= 0.70
     Davidson diagonalization with overlap
     ethr =  1.19E-05,  avg # of iterations =  5.3

     negative rho (up, down):  4.936E-06 0.000E+00

     total cpu time spent up to now is       46.0 secs

     total energy              =    -316.35414643 Ry
     estimated scf accuracy    <       0.00315469 Ry

     iteration #  4     ecut=    50.00 Ry     beta= 0.70
     Davidson diagonalization with overlap
     ethr =  1.05E-05,  avg # of iterations =  4.3

     negative rho (up, down):  1.428E-06 0.000E+00

     total cpu time spent up to now is       52.8 secs

     total energy              =    -316.35454457 Ry
     estimated scf accuracy    <       0.00493980 Ry

     iteration #  5     ecut=    50.00 Ry     beta= 0.70
     Davidson diagonalization with overlap
     ethr =  1.05E-05,  avg # of iterations =  2.2

     negative rho (up, down):  3.119E-08 0.000E+00

     total cpu time spent up to now is       58.3 secs

     total energy              =    -316.35515432 Ry
     estimated scf accuracy    <       0.00000794 Ry

     iteration #  6     ecut=    50.00 Ry     beta= 0.70
     Davidson diagonalization with overlap
     ethr =  2.65E-08,  avg # of iterations =  4.8

     negative rho (up, down):  1.792E-08 0.000E+00

     total cpu time spent up to now is       65.3 secs

     total energy              =    -316.35515738 Ry
     estimated scf accuracy    <       0.00000061 Ry

     iteration #  7     ecut=    50.00 Ry     beta= 0.70
     Davidson diagonalization with overlap
     ethr =  2.02E-09,  avg # of iterations =  2.0

     total cpu time spent up to now is       70.9 secs

     total energy              =    -316.35515752 Ry
     estimated scf accuracy    <       0.00000003 Ry

     iteration #  8     ecut=    50.00 Ry     beta= 0.70
     Davidson diagonalization with overlap
     ethr =  1.14E-10,  avg # of iterations =  2.6

     total cpu time spent up to now is       76.9 secs

     total energy              =    -316.35515753 Ry
     estimated scf accuracy    <          3.4E-09 Ry

     iteration #  9     ecut=    50.00 Ry     beta= 0.70
     Davidson diagonalization with overlap
     ethr =  1.13E-11,  avg # of iterations =  2.5

     total cpu time spent up to now is       82.7 secs

     End of self-consistent calculation

     Number of k-points >= 100: set verbosity='high' to print the bands.

     highest occupied, lowest unoccupied level (ev):    -2.1886   -0.3791

!    total energy              =    -316.35515754 Ry
     estimated scf accuracy    <          1.0E-10 Ry

     The total energy is the sum of the following terms:
     one-electron contribution =   -1181.74497352 Ry
     hartree contribution      =     588.03830241 Ry
     xc contribution           =     -35.82531040 Ry
     ewald contribution        =     313.17682398 Ry

     convergence has been achieved in   9 iterations

     Writing output data file ./work/GeTe-mono.save/
 
     init_run     :      2.13s CPU      2.34s WALL (       1 calls)
     electrons    :     78.52s CPU     80.16s WALL (       1 calls)

     Called by init_run:
     wfcinit      :      1.86s CPU      2.02s WALL (       1 calls)
     potinit      :      0.09s CPU      0.10s WALL (       1 calls)
     hinit0       :      0.07s CPU      0.09s WALL (       1 calls)

     Called by electrons:
     c_bands      :     69.58s CPU     71.01s WALL (      10 calls)
     sum_band     :      8.71s CPU      8.90s WALL (      10 calls)
     v_of_rho     :      0.19s CPU      0.21s WALL (      10 calls)
     mix_rho      :      0.02s CPU      0.02s WALL (      10 calls)

     Called by c_bands:
     init_us_2    :      1.08s CPU      1.10s WALL (    7182 calls)
     cegterg      :     65.41s CPU     66.76s WALL (    3420 calls)

     Called by *egterg:
     cdiaghg      :     10.15s CPU     10.43s WALL (   18296 calls)
     h_psi        :     50.37s CPU     51.45s WALL (   18980 calls)
     g_psi        :      0.26s CPU      0.27s WALL (   15218 calls)

     Called by h_psi:
     h_psi:calbec :      1.62s CPU      1.66s WALL (   18980 calls)
     vloc_psi     :     47.65s CPU     48.67s WALL (   18980 calls)
     add_vuspsi   :      0.87s CPU      0.89s WALL (   18980 calls)

     General routines
     calbec       :      1.59s CPU      1.64s WALL (   18980 calls)
     fft          :      0.09s CPU      0.10s WALL (     118 calls)
     ffts         :      0.00s CPU      0.00s WALL (      20 calls)
     fftw         :     50.31s CPU     51.41s WALL (  627114 calls)
     interpolate  :      0.01s CPU      0.01s WALL (      10 calls)
 
     Parallel routines
     fft_scatt_xy :      6.54s CPU      6.69s WALL (  627252 calls)
     fft_scatt_yz :     23.92s CPU     24.45s WALL (  627252 calls)
 
     PWSCF        :   1m21.63s CPU   1m24.46s WALL

 
   This run was terminated on:   8:54:43  12Sep2021            

=------------------------------------------------------------------------------=
   JOB DONE.
=------------------------------------------------------------------------------=
