
     Program BANDS v.6.7MaX starts on 22Feb2021 at 11:59:15 

     This program is part of the open-source Quantum ESPRESSO suite
     for quantum simulation of materials; please cite
         "P. Giannozzi et al., J. Phys.:Condens. Matter 21 395502 (2009);
         "P. Giannozzi et al., J. Phys.:Condens. Matter 29 465901 (2017);
          URL http://www.quantum-espresso.org", 
     in publications or presentations arising from this work. More details at
     http://www.quantum-espresso.org/quote

     Parallel version (MPI), running on    40 processors

     MPI processes distributed on     1 nodes
     R & G space division:  proc/nbgrp/npool/nimage =      40

     Reading xml data from directory:

     ./work/GeTe-r.save/
     Message from routine read_pp_mesh:
     mesh size missing, using the one in header
     Message from routine read_pp_mesh:
     mesh size missing, using the one in header

     IMPORTANT: XC functional enforced from input :
     Exchange-correlation= PBE
                           (   1   4   3   4   0   0   0)
     Any further DFT definition will be discarded
     Please, verify this is what you really want

 
     Parallelization info
     --------------------
     sticks:   dense  smooth     PW     G-vecs:    dense   smooth      PW
     Min          68      22      6                 2345      449      69
     Max          69      23      7                 2350      454      75
     Sum        2759     917    269                93943    18109    2867
 
     Reading collected, re-writing distributed wavefunctions
     high-symmetry point:  0.2504 0.4335 0.6163   x coordinate   0.0000
     high-symmetry point:  0.0002 0.0002 0.6298   x coordinate   0.5005
     high-symmetry point:  0.0004 0.4431 0.6230   x coordinate   0.9435
     high-symmetry point:  0.0004 0.5907 0.4109   x coordinate   1.2020
     high-symmetry point:  0.0000 0.0000 0.0000   x coordinate   1.9215
     high-symmetry point:  0.3753 0.2072 0.6163   x coordinate   2.6722

     Plottable bands (eV) written to file GeTe-r.bands.gnu
     Bands written to file GeTe-r.bands

 **************************************************************************

                    xk=(   0.25036,   0.43347,   0.61633  )

     point group C_1 (1)    
     there are  1 classes
     the character table:

       E    
A      1.00

     the symmetry operations in each class and the name of the first element:

     E        1
                                                                 

     Band symmetry, C_1 (1)     point group:

     e(  1 -  1) =    -26.55163  eV     1   --> A              
     e(  2 -  2) =    -26.55057  eV     1   --> A              
     e(  3 -  3) =    -26.53826  eV     1   --> A              
     e(  4 -  4) =    -26.53747  eV     1   --> A              
     e(  5 -  5) =    -26.53142  eV     1   --> A              
     e(  6 -  6) =    -14.49761  eV     1   --> A              
     e(  7 -  7) =    -14.49448  eV     1   --> A              
     e(  8 -  8) =    -14.48693  eV     1   --> A              
     e(  9 -  9) =    -14.48530  eV     1   --> A              
     e( 10 - 10) =    -14.47975  eV     1   --> A              
     e( 11 - 11) =     -0.54936  eV     1   --> A              
     e( 12 - 12) =      2.25058  eV     1   --> A              
     e( 13 - 13) =      5.78334  eV     1   --> A              
     e( 14 - 14) =      5.80167  eV     1   --> A              
     e( 15 - 15) =      9.73195  eV     1   --> A              
     e( 16 - 16) =     11.57955  eV     1   --> A              
     e( 17 - 17) =     15.57060  eV     1   --> A              
     e( 18 - 18) =     15.59384  eV     1   --> A              
     e( 19 - 19) =     16.87646  eV     1   --> A              
     e( 20 - 20) =     16.97758  eV     1   --> A              
     e( 21 - 21) =     21.73522  eV     1   --> A              
     e( 22 - 22) =     21.85671  eV     1   --> A              
     e( 23 - 23) =     23.06972  eV     1   --> A              
     e( 24 - 24) =     23.67121  eV     1   --> A              
     e( 25 - 25) =     24.34959  eV     1   --> A              
     e( 26 - 26) =     24.71836  eV     1   --> A              
     e( 27 - 27) =     26.82911  eV     1   --> A              
     e( 28 - 28) =     27.47721  eV     1   --> A              
     e( 29 - 29) =     28.03557  eV     1   --> A              
     e( 30 - 30) =     28.73612  eV     1   --> A              

 **************************************************************************

 **************************************************************************

                    xk=(   0.24536,   0.42480,   0.61660  )

     Band symmetry, C_1 (1)     point group:

     e(  1 -  1) =    -26.55163  eV     1   --> A              
     e(  2 -  2) =    -26.55057  eV     1   --> A              
     e(  3 -  3) =    -26.53826  eV     1   --> A              
     e(  4 -  4) =    -26.53747  eV     1   --> A              
     e(  5 -  5) =    -26.53142  eV     1   --> A              
     e(  6 -  6) =    -14.49760  eV     1   --> A              
     e(  7 -  7) =    -14.49448  eV     1   --> A              
     e(  8 -  8) =    -14.48693  eV     1   --> A              
     e(  9 -  9) =    -14.48530  eV     1   --> A              
     e( 10 - 10) =    -14.47975  eV     1   --> A              
     e( 11 - 11) =     -0.54977  eV     1   --> A              
     e( 12 - 12) =      2.24957  eV     1   --> A              
     e( 13 - 13) =      5.78544  eV     1   --> A              
     e( 14 - 14) =      5.80377  eV     1   --> A              
     e( 15 - 15) =      9.73165  eV     1   --> A              
     e( 16 - 16) =     11.57890  eV     1   --> A              
     e( 17 - 17) =     15.55834  eV     1   --> A              
     e( 18 - 18) =     15.60439  eV     1   --> A              
     e( 19 - 19) =     16.86878  eV     1   --> A              
     e( 20 - 20) =     16.98017  eV     1   --> A              
     e( 21 - 21) =     21.73545  eV     1   --> A              
     e( 22 - 22) =     21.85641  eV     1   --> A              
     e( 23 - 23) =     23.06800  eV     1   --> A              
     e( 24 - 24) =     23.65865  eV     1   --> A              
     e( 25 - 25) =     24.36371  eV     1   --> A              
     e( 26 - 26) =     24.73401  eV     1   --> A              
     e( 27 - 27) =     26.82219  eV     1   --> A              
     e( 28 - 28) =     27.45210  eV     1   --> A              
     e( 29 - 29) =     28.05367  eV     1   --> A              
     e( 30 - 30) =     28.73648  eV     1   --> A              

 **************************************************************************

 **************************************************************************

                    xk=(   0.24035,   0.41614,   0.61687  )

     Band symmetry, C_1 (1)     point group:

     e(  1 -  1) =    -26.55164  eV     1   --> A              
     e(  2 -  2) =    -26.55057  eV     1   --> A              
     e(  3 -  3) =    -26.53826  eV     1   --> A              
     e(  4 -  4) =    -26.53747  eV     1   --> A              
     e(  5 -  5) =    -26.53142  eV     1   --> A              
     e(  6 -  6) =    -14.49760  eV     1   --> A              
     e(  7 -  7) =    -14.49447  eV     1   --> A              
     e(  8 -  8) =    -14.48693  eV     1   --> A              
     e(  9 -  9) =    -14.48531  eV     1   --> A              
     e( 10 - 10) =    -14.47975  eV     1   --> A              
     e( 11 - 11) =     -0.55097  eV     1   --> A              
     e( 12 - 12) =      2.24652  eV     1   --> A              
     e( 13 - 13) =      5.79172  eV     1   --> A              
     e( 14 - 14) =      5.81004  eV     1   --> A              
     e( 15 - 15) =      9.73072  eV     1   --> A              
     e( 16 - 16) =     11.57696  eV     1   --> A              
     e( 17 - 17) =     15.53754  eV     1   --> A              
     e( 18 - 18) =     15.61986  eV     1   --> A              
     e( 19 - 19) =     16.84831  eV     1   --> A              
     e( 20 - 20) =     16.98563  eV     1   --> A              
     e( 21 - 21) =     21.73603  eV     1   --> A              
     e( 22 - 22) =     21.85549  eV     1   --> A              
     e( 23 - 23) =     23.06311  eV     1   --> A              
     e( 24 - 24) =     23.62425  eV     1   --> A              
     e( 25 - 25) =     24.40387  eV     1   --> A              
     e( 26 - 26) =     24.77961  eV     1   --> A              
     e( 27 - 27) =     26.80130  eV     1   --> A              
     e( 28 - 28) =     27.38698  eV     1   --> A              
     e( 29 - 29) =     28.09774  eV     1   --> A              
     e( 30 - 30) =     28.73774  eV     1   --> A              

 **************************************************************************

 **************************************************************************

                    xk=(   0.23535,   0.40747,   0.61713  )

     Band symmetry, C_1 (1)     point group:

     e(  1 -  1) =    -26.55164  eV     1   --> A              
     e(  2 -  2) =    -26.55056  eV     1   --> A              
     e(  3 -  3) =    -26.53825  eV     1   --> A              
     e(  4 -  4) =    -26.53748  eV     1   --> A              
     e(  5 -  5) =    -26.53142  eV     1   --> A              
     e(  6 -  6) =    -14.49760  eV     1   --> A              
     e(  7 -  7) =    -14.49447  eV     1   --> A              
     e(  8 -  8) =    -14.48692  eV     1   --> A              
     e(  9 -  9) =    -14.48531  eV     1   --> A              
     e( 10 - 10) =    -14.47975  eV     1   --> A              
     e( 11 - 11) =     -0.55302  eV     1   --> A              
     e( 12 - 12) =      2.24147  eV     1   --> A              
     e( 13 - 13) =      5.80201  eV     1   --> A              
     e( 14 - 14) =      5.82065  eV     1   --> A              
     e( 15 - 15) =      9.72917  eV     1   --> A              
     e( 16 - 16) =     11.57372  eV     1   --> A              
     e( 17 - 17) =     15.51430  eV     1   --> A              
     e( 18 - 18) =     15.63350  eV     1   --> A              
     e( 19 - 19) =     16.81961  eV     1   --> A              
     e( 20 - 20) =     16.99033  eV     1   --> A              
     e( 21 - 21) =     21.73627  eV     1   --> A              
     e( 22 - 22) =     21.85400  eV     1   --> A              
     e( 23 - 23) =     23.05641  eV     1   --> A              
     e( 24 - 24) =     23.57537  eV     1   --> A              
     e( 25 - 25) =     24.46528  eV     1   --> A              
     e( 26 - 26) =     24.85140  eV     1   --> A              
     e( 27 - 27) =     26.76589  eV     1   --> A              
     e( 28 - 28) =     27.29877  eV     1   --> A              
     e( 29 - 29) =     28.15043  eV     1   --> A              
     e( 30 - 30) =     28.74049  eV     1   --> A              

 **************************************************************************

 **************************************************************************

                    xk=(   0.23034,   0.39880,   0.61740  )

     Band symmetry, C_1 (1)     point group:

     e(  1 -  1) =    -26.55164  eV     1   --> A              
     e(  2 -  2) =    -26.55056  eV     1   --> A              
     e(  3 -  3) =    -26.53825  eV     1   --> A              
     e(  4 -  4) =    -26.53748  eV     1   --> A              
     e(  5 -  5) =    -26.53142  eV     1   --> A              
     e(  6 -  6) =    -14.49760  eV     1   --> A              
     e(  7 -  7) =    -14.49447  eV     1   --> A              
     e(  8 -  8) =    -14.48692  eV     1   --> A              
     e(  9 -  9) =    -14.48532  eV     1   --> A              
     e( 10 - 10) =    -14.47975  eV     1   --> A              
     e( 11 - 11) =     -0.55585  eV     1   --> A              
     e( 12 - 12) =      2.23448  eV     1   --> A              
     e( 13 - 13) =      5.81603  eV     1   --> A              
     e( 14 - 14) =      5.83579  eV     1   --> A              
     e( 15 - 15) =      9.72700  eV     1   --> A              
     e( 16 - 16) =     11.56922  eV     1   --> A              
     e( 17 - 17) =     15.48911  eV     1   --> A              
     e( 18 - 18) =     15.64369  eV     1   --> A              
     e( 19 - 19) =     16.78617  eV     1   --> A              
     e( 20 - 20) =     16.99239  eV     1   --> A              
     e( 21 - 21) =     21.73506  eV     1   --> A              
     e( 22 - 22) =     21.85209  eV     1   --> A              
     e( 23 - 23) =     23.04977  eV     1   --> A              
     e( 24 - 24) =     23.51944  eV     1   --> A              
     e( 25 - 25) =     24.54367  eV     1   --> A              
     e( 26 - 26) =     24.94455  eV     1   --> A              
     e( 27 - 27) =     26.71518  eV     1   --> A              
     e( 28 - 28) =     27.20014  eV     1   --> A              
     e( 29 - 29) =     28.19883  eV     1   --> A              
     e( 30 - 30) =     28.74542  eV     1   --> A              

 **************************************************************************

 **************************************************************************

                    xk=(   0.22534,   0.39014,   0.61767  )

     Band symmetry, C_1 (1)     point group:

     e(  1 -  1) =    -26.55164  eV     1   --> A              
     e(  2 -  2) =    -26.55055  eV     1   --> A              
     e(  3 -  3) =    -26.53825  eV     1   --> A              
     e(  4 -  4) =    -26.53748  eV     1   --> A              
     e(  5 -  5) =    -26.53143  eV     1   --> A              
     e(  6 -  6) =    -14.49760  eV     1   --> A              
     e(  7 -  7) =    -14.49446  eV     1   --> A              
     e(  8 -  8) =    -14.48692  eV     1   --> A              
     e(  9 -  9) =    -14.48533  eV     1   --> A              
     e( 10 - 10) =    -14.47976  eV     1   --> A              
     e( 11 - 11) =     -0.55948  eV     1   --> A              
     e( 12 - 12) =      2.22560  eV     1   --> A              
     e( 13 - 13) =      5.83350  eV     1   --> A              
     e( 14 - 14) =      5.85563  eV     1   --> A              
     e( 15 - 15) =      9.72424  eV     1   --> A              
     e( 16 - 16) =     11.56348  eV     1   --> A              
     e( 17 - 17) =     15.46181  eV     1   --> A              
     e( 18 - 18) =     15.64899  eV     1   --> A              
     e( 19 - 19) =     16.75065  eV     1   --> A              
     e( 20 - 20) =     16.99138  eV     1   --> A              
     e( 21 - 21) =     21.73098  eV     1   --> A              
     e( 22 - 22) =     21.84990  eV     1   --> A              
     e( 23 - 23) =     23.04516  eV     1   --> A              
     e( 24 - 24) =     23.46228  eV     1   --> A              
     e( 25 - 25) =     24.63605  eV     1   --> A              
     e( 26 - 26) =     25.05429  eV     1   --> A              
     e( 27 - 27) =     26.64869  eV     1   --> A              
     e( 28 - 28) =     27.09875  eV     1   --> A              
     e( 29 - 29) =     28.23557  eV     1   --> A              
     e( 30 - 30) =     28.75280  eV     1   --> A              

 **************************************************************************

 **************************************************************************

                    xk=(   0.22034,   0.38147,   0.61794  )

     Band symmetry, C_1 (1)     point group:

     e(  1 -  1) =    -26.55165  eV     1   --> A              
     e(  2 -  2) =    -26.55055  eV     1   --> A              
     e(  3 -  3) =    -26.53825  eV     1   --> A              
     e(  4 -  4) =    -26.53749  eV     1   --> A              
     e(  5 -  5) =    -26.53143  eV     1   --> A              
     e(  6 -  6) =    -14.49759  eV     1   --> A              
     e(  7 -  7) =    -14.49446  eV     1   --> A              
     e(  8 -  8) =    -14.48692  eV     1   --> A              
     e(  9 -  9) =    -14.48534  eV     1   --> A              
     e( 10 - 10) =    -14.47976  eV     1   --> A              
     e( 11 - 11) =     -0.56391  eV     1   --> A              
     e( 12 - 12) =      2.21493  eV     1   --> A              
     e( 13 - 13) =      5.85425  eV     1   --> A              
     e( 14 - 14) =      5.88025  eV     1   --> A              
     e( 15 - 15) =      9.72090  eV     1   --> A              
     e( 16 - 16) =     11.55654  eV     1   --> A              
     e( 17 - 17) =     15.43200  eV     1   --> A              
     e( 18 - 18) =     15.64777  eV     1   --> A              
     e( 19 - 19) =     16.71552  eV     1   --> A              
     e( 20 - 20) =     16.98760  eV     1   --> A              
     e( 21 - 21) =     21.72261  eV     1   --> A              
     e( 22 - 22) =     21.84745  eV     1   --> A              
     e( 23 - 23) =     23.04429  eV     1   --> A              
     e( 24 - 24) =     23.40815  eV     1   --> A              
     e( 25 - 25) =     24.74033  eV     1   --> A              
     e( 26 - 26) =     25.17646  eV     1   --> A              
     e( 27 - 27) =     26.56701  eV     1   --> A              
     e( 28 - 28) =     26.99870  eV     1   --> A              
     e( 29 - 29) =     28.25771  eV     1   --> A              
     e( 30 - 30) =     28.76196  eV     1   --> A              

 **************************************************************************

 **************************************************************************

                    xk=(   0.21533,   0.37280,   0.61821  )

     Band symmetry, C_1 (1)     point group:

     e(  1 -  1) =    -26.55165  eV     1   --> A              
     e(  2 -  2) =    -26.55054  eV     1   --> A              
     e(  3 -  3) =    -26.53825  eV     1   --> A              
     e(  4 -  4) =    -26.53750  eV     1   --> A              
     e(  5 -  5) =    -26.53143  eV     1   --> A              
     e(  6 -  6) =    -14.49759  eV     1   --> A              
     e(  7 -  7) =    -14.49445  eV     1   --> A              
     e(  8 -  8) =    -14.48691  eV     1   --> A              
     e(  9 -  9) =    -14.48536  eV     1   --> A              
     e( 10 - 10) =    -14.47976  eV     1   --> A              
     e( 11 - 11) =     -0.56902  eV     1   --> A              
     e( 12 - 12) =      2.20256  eV     1   --> A              
     e( 13 - 13) =      5.87824  eV     1   --> A              
     e( 14 - 14) =      5.90953  eV     1   --> A              
     e( 15 - 15) =      9.71701  eV     1   --> A              
     e( 16 - 16) =     11.54846  eV     1   --> A              
     e( 17 - 17) =     15.39914  eV     1   --> A              
     e( 18 - 18) =     15.63818  eV     1   --> A              
     e( 19 - 19) =     16.68324  eV     1   --> A              
     e( 20 - 20) =     16.98185  eV     1   --> A              
     e( 21 - 21) =     21.70898  eV     1   --> A              
     e( 22 - 22) =     21.84438  eV     1   --> A              
     e( 23 - 23) =     23.04841  eV     1   --> A              
     e( 24 - 24) =     23.36029  eV     1   --> A              
     e( 25 - 25) =     24.85477  eV     1   --> A              
     e( 26 - 26) =     25.30728  eV     1   --> A              
     e( 27 - 27) =     26.47277  eV     1   --> A              
     e( 28 - 28) =     26.90134  eV     1   --> A              
     e( 29 - 29) =     28.26552  eV     1   --> A              
     e( 30 - 30) =     28.77139  eV     1   --> A              

 **************************************************************************

 **************************************************************************

                    xk=(   0.21033,   0.36414,   0.61848  )

     Band symmetry, C_1 (1)     point group:

     e(  1 -  1) =    -26.55166  eV     1   --> A              
     e(  2 -  2) =    -26.55053  eV     1   --> A              
     e(  3 -  3) =    -26.53825  eV     1   --> A              
     e(  4 -  4) =    -26.53751  eV     1   --> A              
     e(  5 -  5) =    -26.53143  eV     1   --> A              
     e(  6 -  6) =    -14.49759  eV     1   --> A              
     e(  7 -  7) =    -14.49445  eV     1   --> A              
     e(  8 -  8) =    -14.48691  eV     1   --> A              
     e(  9 -  9) =    -14.48537  eV     1   --> A              
     e( 10 - 10) =    -14.47977  eV     1   --> A              
     e( 11 - 11) =     -0.57488  eV     1   --> A              
     e( 12 - 12) =      2.18860  eV     1   --> A              
     e( 13 - 13) =      5.90546  eV     1   --> A              
     e( 14 - 14) =      5.94333  eV     1   --> A              
     e( 15 - 15) =      9.71261  eV     1   --> A              
     e( 16 - 16) =     11.53926  eV     1   --> A              
     e( 17 - 17) =     15.36257  eV     1   --> A              
     e( 18 - 18) =     15.61839  eV     1   --> A              
     e( 19 - 19) =     16.65620  eV     1   --> A              
     e( 20 - 20) =     16.97517  eV     1   --> A              
     e( 21 - 21) =     21.68974  eV     1   --> A              
     e( 22 - 22) =     21.83975  eV     1   --> A              
     e( 23 - 23) =     23.05817  eV     1   --> A              
     e( 24 - 24) =     23.32121  eV     1   --> A              
     e( 25 - 25) =     24.97760  eV     1   --> A              
     e( 26 - 26) =     25.44252  eV     1   --> A              
     e( 27 - 27) =     26.37133  eV     1   --> A              
     e( 28 - 28) =     26.80598  eV     1   --> A              
     e( 29 - 29) =     28.26123  eV     1   --> A              
     e( 30 - 30) =     28.77934  eV     1   --> A              

 **************************************************************************

 **************************************************************************

                    xk=(   0.20533,   0.35547,   0.61874  )

     Band symmetry, C_1 (1)     point group:

     e(  1 -  1) =    -26.55167  eV     1   --> A              
     e(  2 -  2) =    -26.55052  eV     1   --> A              
     e(  3 -  3) =    -26.53825  eV     1   --> A              
     e(  4 -  4) =    -26.53752  eV     1   --> A              
     e(  5 -  5) =    -26.53144  eV     1   --> A              
     e(  6 -  6) =    -14.49758  eV     1   --> A              
     e(  7 -  7) =    -14.49444  eV     1   --> A              
     e(  8 -  8) =    -14.48690  eV     1   --> A              
     e(  9 -  9) =    -14.48539  eV     1   --> A              
     e( 10 - 10) =    -14.47978  eV     1   --> A              
     e( 11 - 11) =     -0.58142  eV     1   --> A              
     e( 12 - 12) =      2.17317  eV     1   --> A              
     e( 13 - 13) =      5.93595  eV     1   --> A              
     e( 14 - 14) =      5.98145  eV     1   --> A              
     e( 15 - 15) =      9.70772  eV     1   --> A              
     e( 16 - 16) =     11.52903  eV     1   --> A              
     e( 17 - 17) =     15.32157  eV     1   --> A              
     e( 18 - 18) =     15.58686  eV     1   --> A              
     e( 19 - 19) =     16.63639  eV     1   --> A              
     e( 20 - 20) =     16.96883  eV     1   --> A              
     e( 21 - 21) =     21.66511  eV     1   --> A              
     e( 22 - 22) =     21.83231  eV     1   --> A              
     e( 23 - 23) =     23.07359  eV     1   --> A              
     e( 24 - 24) =     23.29296  eV     1   --> A              
     e( 25 - 25) =     25.10661  eV     1   --> A              
     e( 26 - 26) =     25.57534  eV     1   --> A              
     e( 27 - 27) =     26.27238  eV     1   --> A              
     e( 28 - 28) =     26.71108  eV     1   --> A              
     e( 29 - 29) =     28.24775  eV     1   --> A              
     e( 30 - 30) =     28.78451  eV     1   --> A              

 **************************************************************************

 **************************************************************************

                    xk=(   0.20032,   0.34680,   0.61901  )

     Band symmetry, C_1 (1)     point group:

     e(  1 -  1) =    -26.55167  eV     1   --> A              
     e(  2 -  2) =    -26.55051  eV     1   --> A              
     e(  3 -  3) =    -26.53824  eV     1   --> A              
     e(  4 -  4) =    -26.53753  eV     1   --> A              
     e(  5 -  5) =    -26.53144  eV     1   --> A              
     e(  6 -  6) =    -14.49758  eV     1   --> A              
     e(  7 -  7) =    -14.49444  eV     1   --> A              
     e(  8 -  8) =    -14.48690  eV     1   --> A              
     e(  9 -  9) =    -14.48542  eV     1   --> A              
     e( 10 - 10) =    -14.47978  eV     1   --> A              
     e( 11 - 11) =     -0.58858  eV     1   --> A              
     e( 12 - 12) =      2.15640  eV     1   --> A              
     e( 13 - 13) =      5.96969  eV     1   --> A              
     e( 14 - 14) =      6.02370  eV     1   --> A              
     e( 15 - 15) =      9.70239  eV     1   --> A              
     e( 16 - 16) =     11.51781  eV     1   --> A              
     e( 17 - 17) =     15.27537  eV     1   --> A              
     e( 18 - 18) =     15.54267  eV     1   --> A              
     e( 19 - 19) =     16.62514  eV     1   --> A              
     e( 20 - 20) =     16.96419  eV     1   --> A              
     e( 21 - 21) =     21.63570  eV     1   --> A              
     e( 22 - 22) =     21.82087  eV     1   --> A              
     e( 23 - 23) =     23.09414  eV     1   --> A              
     e( 24 - 24) =     23.27715  eV     1   --> A              
     e( 25 - 25) =     25.23791  eV     1   --> A              
     e( 26 - 26) =     25.69025  eV     1   --> A              
     e( 27 - 27) =     26.19617  eV     1   --> A              
     e( 28 - 28) =     26.61516  eV     1   --> A              
     e( 29 - 29) =     28.22788  eV     1   --> A              
     e( 30 - 30) =     28.78630  eV     1   --> A              

 **************************************************************************

 **************************************************************************

                    xk=(   0.19532,   0.33814,   0.61928  )

     Band symmetry, C_1 (1)     point group:

     e(  1 -  1) =    -26.55168  eV     1   --> A              
     e(  2 -  2) =    -26.55050  eV     1   --> A              
     e(  3 -  3) =    -26.53824  eV     1   --> A              
     e(  4 -  4) =    -26.53754  eV     1   --> A              
     e(  5 -  5) =    -26.53144  eV     1   --> A              
     e(  6 -  6) =    -14.49757  eV     1   --> A              
     e(  7 -  7) =    -14.49443  eV     1   --> A              
     e(  8 -  8) =    -14.48689  eV     1   --> A              
     e(  9 -  9) =    -14.48544  eV     1   --> A              
     e( 10 - 10) =    -14.47979  eV     1   --> A              
     e( 11 - 11) =     -0.59635  eV     1   --> A              
     e( 12 - 12) =      2.13842  eV     1   --> A              
     e( 13 - 13) =      6.00667  eV     1   --> A              
     e( 14 - 14) =      6.06989  eV     1   --> A              
     e( 15 - 15) =      9.69666  eV     1   --> A              
     e( 16 - 16) =     11.50568  eV     1   --> A              
     e( 17 - 17) =     15.22322  eV     1   --> A              
     e( 18 - 18) =     15.48577  eV     1   --> A              
     e( 19 - 19) =     16.62285  eV     1   --> A              
     e( 20 - 20) =     16.96265  eV     1   --> A              
     e( 21 - 21) =     21.60224  eV     1   --> A              
     e( 22 - 22) =     21.80450  eV     1   --> A              
     e( 23 - 23) =     23.11889  eV     1   --> A              
     e( 24 - 24) =     23.27488  eV     1   --> A              
     e( 25 - 25) =     25.36169  eV     1   --> A              
     e( 26 - 26) =     25.75600  eV     1   --> A              
     e( 27 - 27) =     26.18426  eV     1   --> A              
     e( 28 - 28) =     26.51739  eV     1   --> A              
     e( 29 - 29) =     28.20392  eV     1   --> A              
     e( 30 - 30) =     28.78466  eV     1   --> A              

 **************************************************************************

 **************************************************************************

                    xk=(   0.19032,   0.32947,   0.61955  )

     Band symmetry, C_1 (1)     point group:

     e(  1 -  1) =    -26.55169  eV     1   --> A              
     e(  2 -  2) =    -26.55049  eV     1   --> A              
     e(  3 -  3) =    -26.53824  eV     1   --> A              
     e(  4 -  4) =    -26.53756  eV     1   --> A              
     e(  5 -  5) =    -26.53145  eV     1   --> A              
     e(  6 -  6) =    -14.49757  eV     1   --> A              
     e(  7 -  7) =    -14.49442  eV     1   --> A              
     e(  8 -  8) =    -14.48689  eV     1   --> A              
     e(  9 -  9) =    -14.48547  eV     1   --> A              
     e( 10 - 10) =    -14.47980  eV     1   --> A              
     e( 11 - 11) =     -0.60472  eV     1   --> A              
     e( 12 - 12) =      2.11936  eV     1   --> A              
     e( 13 - 13) =      6.04687  eV     1   --> A              
     e( 14 - 14) =      6.11986  eV     1   --> A              
     e( 15 - 15) =      9.69057  eV     1   --> A              
     e( 16 - 16) =     11.49270  eV     1   --> A              
     e( 17 - 17) =     15.16441  eV     1   --> A              
     e( 18 - 18) =     15.41690  eV     1   --> A              
     e( 19 - 19) =     16.62913  eV     1   --> A              
     e( 20 - 20) =     16.96560  eV     1   --> A              
     e( 21 - 21) =     21.56549  eV     1   --> A              
     e( 22 - 22) =     21.78274  eV     1   --> A              
     e( 23 - 23) =     23.14690  eV     1   --> A              
     e( 24 - 24) =     23.28641  eV     1   --> A              
     e( 25 - 25) =     25.44632  eV     1   --> A              
     e( 26 - 26) =     25.77811  eV     1   --> A              
     e( 27 - 27) =     26.26138  eV     1   --> A              
     e( 28 - 28) =     26.41903  eV     1   --> A              
     e( 29 - 29) =     28.17769  eV     1   --> A              
     e( 30 - 30) =     28.77982  eV     1   --> A              

 **************************************************************************

 **************************************************************************

                    xk=(   0.18531,   0.32081,   0.61982  )

     Band symmetry, C_1 (1)     point group:

     e(  1 -  1) =    -26.55170  eV     1   --> A              
     e(  2 -  2) =    -26.55048  eV     1   --> A              
     e(  3 -  3) =    -26.53824  eV     1   --> A              
     e(  4 -  4) =    -26.53757  eV     1   --> A              
     e(  5 -  5) =    -26.53145  eV     1   --> A              
     e(  6 -  6) =    -14.49756  eV     1   --> A              
     e(  7 -  7) =    -14.49441  eV     1   --> A              
     e(  8 -  8) =    -14.48688  eV     1   --> A              
     e(  9 -  9) =    -14.48550  eV     1   --> A              
     e( 10 - 10) =    -14.47980  eV     1   --> A              
     e( 11 - 11) =     -0.61359  eV     1   --> A              
     e( 12 - 12) =      2.09936  eV     1   --> A              
     e( 13 - 13) =      6.09024  eV     1   --> A              
     e( 14 - 14) =      6.17343  eV     1   --> A              
     e( 15 - 15) =      9.68417  eV     1   --> A              
     e( 16 - 16) =     11.47896  eV     1   --> A              
     e( 17 - 17) =     15.09829  eV     1   --> A              
     e( 18 - 18) =     15.33741  eV     1   --> A              
     e( 19 - 19) =     16.64294  eV     1   --> A              
     e( 20 - 20) =     16.97430  eV     1   --> A              
     e( 21 - 21) =     21.52618  eV     1   --> A              
     e( 22 - 22) =     21.75558  eV     1   --> A              
     e( 23 - 23) =     23.17774  eV     1   --> A              
     e( 24 - 24) =     23.31072  eV     1   --> A              
     e( 25 - 25) =     25.43653  eV     1   --> A              
     e( 26 - 26) =     25.84694  eV     1   --> A              
     e( 27 - 27) =     26.30263  eV     1   --> A              
     e( 28 - 28) =     26.40999  eV     1   --> A              
     e( 29 - 29) =     28.15074  eV     1   --> A              
     e( 30 - 30) =     28.77217  eV     1   --> A              

 **************************************************************************

 **************************************************************************

                    xk=(   0.18031,   0.31214,   0.62009  )

     Band symmetry, C_1 (1)     point group:

     e(  1 -  1) =    -26.55171  eV     1   --> A              
     e(  2 -  2) =    -26.55047  eV     1   --> A              
     e(  3 -  3) =    -26.53823  eV     1   --> A              
     e(  4 -  4) =    -26.53759  eV     1   --> A              
     e(  5 -  5) =    -26.53146  eV     1   --> A              
     e(  6 -  6) =    -14.49756  eV     1   --> A              
     e(  7 -  7) =    -14.49440  eV     1   --> A              
     e(  8 -  8) =    -14.48688  eV     1   --> A              
     e(  9 -  9) =    -14.48553  eV     1   --> A              
     e( 10 - 10) =    -14.47981  eV     1   --> A              
     e( 11 - 11) =     -0.62293  eV     1   --> A              
     e( 12 - 12) =      2.07855  eV     1   --> A              
     e( 13 - 13) =      6.13672  eV     1   --> A              
     e( 14 - 14) =      6.23042  eV     1   --> A              
     e( 15 - 15) =      9.67752  eV     1   --> A              
     e( 16 - 16) =     11.46452  eV     1   --> A              
     e( 17 - 17) =     15.02436  eV     1   --> A              
     e( 18 - 18) =     15.24895  eV     1   --> A              
     e( 19 - 19) =     16.66303  eV     1   --> A              
     e( 20 - 20) =     16.98982  eV     1   --> A              
     e( 21 - 21) =     21.48499  eV     1   --> A              
     e( 22 - 22) =     21.72342  eV     1   --> A              
     e( 23 - 23) =     23.21151  eV     1   --> A              
     e( 24 - 24) =     23.34562  eV     1   --> A              
     e( 25 - 25) =     25.35072  eV     1   --> A              
     e( 26 - 26) =     25.97469  eV     1   --> A              
     e( 27 - 27) =     26.20386  eV     1   --> A              
     e( 28 - 28) =     26.56401  eV     1   --> A              
     e( 29 - 29) =     28.12435  eV     1   --> A              
     e( 30 - 30) =     28.76211  eV     1   --> A              

 **************************************************************************

 **************************************************************************

                    xk=(   0.17531,   0.30347,   0.62036  )

     Band symmetry, C_1 (1)     point group:

     e(  1 -  1) =    -26.55172  eV     1   --> A              
     e(  2 -  2) =    -26.55046  eV     1   --> A              
     e(  3 -  3) =    -26.53823  eV     1   --> A              
     e(  4 -  4) =    -26.53760  eV     1   --> A              
     e(  5 -  5) =    -26.53146  eV     1   --> A              
     e(  6 -  6) =    -14.49755  eV     1   --> A              
     e(  7 -  7) =    -14.49439  eV     1   --> A              
     e(  8 -  8) =    -14.48687  eV     1   --> A              
     e(  9 -  9) =    -14.48556  eV     1   --> A              
     e( 10 - 10) =    -14.47982  eV     1   --> A              
     e( 11 - 11) =     -0.63271  eV     1   --> A              
     e( 12 - 12) =      2.05705  eV     1   --> A              
     e( 13 - 13) =      6.18626  eV     1   --> A              
     e( 14 - 14) =      6.29068  eV     1   --> A              
     e( 15 - 15) =      9.67068  eV     1   --> A              
     e( 16 - 16) =     11.44946  eV     1   --> A              
     e( 17 - 17) =     14.94226  eV     1   --> A              
     e( 18 - 18) =     15.15321  eV     1   --> A              
     e( 19 - 19) =     16.68816  eV     1   --> A              
     e( 20 - 20) =     17.01289  eV     1   --> A              
     e( 21 - 21) =     21.44250  eV     1   --> A              
     e( 22 - 22) =     21.68688  eV     1   --> A              
     e( 23 - 23) =     23.24821  eV     1   --> A              
     e( 24 - 24) =     23.38843  eV     1   --> A              
     e( 25 - 25) =     25.23653  eV     1   --> A              
     e( 26 - 26) =     26.06907  eV     1   --> A              
     e( 27 - 27) =     26.15778  eV     1   --> A              
     e( 28 - 28) =     26.73328  eV     1   --> A              
     e( 29 - 29) =     28.09985  eV     1   --> A              
     e( 30 - 30) =     28.75004  eV     1   --> A              

 **************************************************************************

 **************************************************************************

                    xk=(   0.17030,   0.29481,   0.62062  )

     Band symmetry, C_1 (1)     point group:

     e(  1 -  1) =    -26.55173  eV     1   --> A              
     e(  2 -  2) =    -26.55044  eV     1   --> A              
     e(  3 -  3) =    -26.53823  eV     1   --> A              
     e(  4 -  4) =    -26.53762  eV     1   --> A              
     e(  5 -  5) =    -26.53147  eV     1   --> A              
     e(  6 -  6) =    -14.49754  eV     1   --> A              
     e(  7 -  7) =    -14.49438  eV     1   --> A              
     e(  8 -  8) =    -14.48686  eV     1   --> A              
     e(  9 -  9) =    -14.48559  eV     1   --> A              
     e( 10 - 10) =    -14.47983  eV     1   --> A              
     e( 11 - 11) =     -0.64283  eV     1   --> A              
     e( 12 - 12) =      2.03500  eV     1   --> A              
     e( 13 - 13) =      6.23880  eV     1   --> A              
     e( 14 - 14) =      6.35405  eV     1   --> A              
     e( 15 - 15) =      9.66370  eV     1   --> A              
     e( 16 - 16) =     11.43387  eV     1   --> A              
     e( 17 - 17) =     14.85184  eV     1   --> A              
     e( 18 - 18) =     15.05176  eV     1   --> A              
     e( 19 - 19) =     16.71739  eV     1   --> A              
     e( 20 - 20) =     17.04391  eV     1   --> A              
     e( 21 - 21) =     21.39921  eV     1   --> A              
     e( 22 - 22) =     21.64677  eV     1   --> A              
     e( 23 - 23) =     23.28712  eV     1   --> A              
     e( 24 - 24) =     23.43672  eV     1   --> A              
     e( 25 - 25) =     25.11381  eV     1   --> A              
     e( 26 - 26) =     25.97350  eV     1   --> A              
     e( 27 - 27) =     26.31130  eV     1   --> A              
     e( 28 - 28) =     26.90790  eV     1   --> A              
     e( 29 - 29) =     28.07884  eV     1   --> A              
     e( 30 - 30) =     28.73636  eV     1   --> A              

 **************************************************************************

 **************************************************************************

                    xk=(   0.16530,   0.28614,   0.62089  )

     Band symmetry, C_1 (1)     point group:

     e(  1 -  1) =    -26.55174  eV     1   --> A              
     e(  2 -  2) =    -26.55043  eV     1   --> A              
     e(  3 -  3) =    -26.53822  eV     1   --> A              
     e(  4 -  4) =    -26.53764  eV     1   --> A              
     e(  5 -  5) =    -26.53147  eV     1   --> A              
     e(  6 -  6) =    -14.49754  eV     1   --> A              
     e(  7 -  7) =    -14.49437  eV     1   --> A              
     e(  8 -  8) =    -14.48685  eV     1   --> A              
     e(  9 -  9) =    -14.48562  eV     1   --> A              
     e( 10 - 10) =    -14.47983  eV     1   --> A              
     e( 11 - 11) =     -0.65332  eV     1   --> A              
     e( 12 - 12) =      2.01252  eV     1   --> A              
     e( 13 - 13) =      6.29425  eV     1   --> A              
     e( 14 - 14) =      6.42034  eV     1   --> A              
     e( 15 - 15) =      9.65664  eV     1   --> A              
     e( 16 - 16) =     11.41780  eV     1   --> A              
     e( 17 - 17) =     14.75321  eV     1   --> A              
     e( 18 - 18) =     14.94586  eV     1   --> A              
     e( 19 - 19) =     16.75008  eV     1   --> A              
     e( 20 - 20) =     17.08287  eV     1   --> A              
     e( 21 - 21) =     21.35554  eV     1   --> A              
     e( 22 - 22) =     21.60387  eV     1   --> A              
     e( 23 - 23) =     23.32642  eV     1   --> A              
     e( 24 - 24) =     23.48852  eV     1   --> A              
     e( 25 - 25) =     24.99076  eV     1   --> A              
     e( 26 - 26) =     25.86319  eV     1   --> A              
     e( 27 - 27) =     26.48529  eV     1   --> A              
     e( 28 - 28) =     27.08341  eV     1   --> A              
     e( 29 - 29) =     28.06363  eV     1   --> A              
     e( 30 - 30) =     28.72147  eV     1   --> A              

 **************************************************************************

 **************************************************************************

                    xk=(   0.16029,   0.27747,   0.62116  )

     Band symmetry, C_1 (1)     point group:

     e(  1 -  1) =    -26.55175  eV     1   --> A              
     e(  2 -  2) =    -26.55041  eV     1   --> A              
     e(  3 -  3) =    -26.53822  eV     1   --> A              
     e(  4 -  4) =    -26.53765  eV     1   --> A              
     e(  5 -  5) =    -26.53148  eV     1   --> A              
     e(  6 -  6) =    -14.49753  eV     1   --> A              
     e(  7 -  7) =    -14.49436  eV     1   --> A              
     e(  8 -  8) =    -14.48684  eV     1   --> A              
     e(  9 -  9) =    -14.48566  eV     1   --> A              
     e( 10 - 10) =    -14.47984  eV     1   --> A              
     e( 11 - 11) =     -0.66408  eV     1   --> A              
     e( 12 - 12) =      1.98972  eV     1   --> A              
     e( 13 - 13) =      6.35256  eV     1   --> A              
     e( 14 - 14) =      6.48941  eV     1   --> A              
     e( 15 - 15) =      9.64959  eV     1   --> A              
     e( 16 - 16) =     11.40134  eV     1   --> A              
     e( 17 - 17) =     14.64680  eV     1   --> A              
     e( 18 - 18) =     14.83644  eV     1   --> A              
     e( 19 - 19) =     16.78595  eV     1   --> A              
     e( 20 - 20) =     17.12940  eV     1   --> A              
     e( 21 - 21) =     21.31185  eV     1   --> A              
     e( 22 - 22) =     21.55897  eV     1   --> A              
     e( 23 - 23) =     23.36317  eV     1   --> A              
     e( 24 - 24) =     23.54227  eV     1   --> A              
     e( 25 - 25) =     24.87251  eV     1   --> A              
     e( 26 - 26) =     25.75199  eV     1   --> A              
     e( 27 - 27) =     26.66443  eV     1   --> A              
     e( 28 - 28) =     27.25506  eV     1   --> A              
     e( 29 - 29) =     28.05816  eV     1   --> A              
     e( 30 - 30) =     28.70586  eV     1   --> A              

 **************************************************************************

 **************************************************************************

                    xk=(   0.15529,   0.26881,   0.62143  )

     Band symmetry, C_1 (1)     point group:

     e(  1 -  1) =    -26.55175  eV     1   --> A              
     e(  2 -  2) =    -26.55040  eV     1   --> A              
     e(  3 -  3) =    -26.53822  eV     1   --> A              
     e(  4 -  4) =    -26.53767  eV     1   --> A              
     e(  5 -  5) =    -26.53148  eV     1   --> A              
     e(  6 -  6) =    -14.49752  eV     1   --> A              
     e(  7 -  7) =    -14.49434  eV     1   --> A              
     e(  8 -  8) =    -14.48684  eV     1   --> A              
     e(  9 -  9) =    -14.48570  eV     1   --> A              
     e( 10 - 10) =    -14.47985  eV     1   --> A              
     e( 11 - 11) =     -0.67509  eV     1   --> A              
     e( 12 - 12) =      1.96671  eV     1   --> A              
     e( 13 - 13) =      6.41365  eV     1   --> A              
     e( 14 - 14) =      6.56109  eV     1   --> A              
     e( 15 - 15) =      9.64259  eV     1   --> A              
     e( 16 - 16) =     11.38457  eV     1   --> A              
     e( 17 - 17) =     14.53332  eV     1   --> A              
     e( 18 - 18) =     14.72405  eV     1   --> A              
     e( 19 - 19) =     16.82496  eV     1   --> A              
     e( 20 - 20) =     17.18295  eV     1   --> A              
     e( 21 - 21) =     21.26844  eV     1   --> A              
     e( 22 - 22) =     21.51273  eV     1   --> A              
     e( 23 - 23) =     23.39314  eV     1   --> A              
     e( 24 - 24) =     23.59668  eV     1   --> A              
     e( 25 - 25) =     24.76360  eV     1   --> A              
     e( 26 - 26) =     25.64229  eV     1   --> A              
     e( 27 - 27) =     26.84559  eV     1   --> A              
     e( 28 - 28) =     27.41561  eV     1   --> A              
     e( 29 - 29) =     28.06964  eV     1   --> A              
     e( 30 - 30) =     28.69007  eV     1   --> A              

 **************************************************************************

 **************************************************************************

                    xk=(   0.15029,   0.26014,   0.62170  )

     Band symmetry, C_1 (1)     point group:

     e(  1 -  1) =    -26.55176  eV     1   --> A              
     e(  2 -  2) =    -26.55038  eV     1   --> A              
     e(  3 -  3) =    -26.53822  eV     1   --> A              
     e(  4 -  4) =    -26.53769  eV     1   --> A              
     e(  5 -  5) =    -26.53149  eV     1   --> A              
     e(  6 -  6) =    -14.49752  eV     1   --> A              
     e(  7 -  7) =    -14.49433  eV     1   --> A              
     e(  8 -  8) =    -14.48682  eV     1   --> A              
     e(  9 -  9) =    -14.48573  eV     1   --> A              
     e( 10 - 10) =    -14.47985  eV     1   --> A              
     e( 11 - 11) =     -0.68625  eV     1   --> A              
     e( 12 - 12) =      1.94361  eV     1   --> A              
     e( 13 - 13) =      6.47742  eV     1   --> A              
     e( 14 - 14) =      6.63523  eV     1   --> A              
     e( 15 - 15) =      9.63574  eV     1   --> A              
     e( 16 - 16) =     11.36755  eV     1   --> A              
     e( 17 - 17) =     14.41372  eV     1   --> A              
     e( 18 - 18) =     14.60897  eV     1   --> A              
     e( 19 - 19) =     16.86716  eV     1   --> A              
     e( 20 - 20) =     17.24283  eV     1   --> A              
     e( 21 - 21) =     21.22554  eV     1   --> A              
     e( 22 - 22) =     21.46575  eV     1   --> A              
     e( 23 - 23) =     23.41096  eV     1   --> A              
     e( 24 - 24) =     23.65050  eV     1   --> A              
     e( 25 - 25) =     24.66883  eV     1   --> A              
     e( 26 - 26) =     25.53619  eV     1   --> A              
     e( 27 - 27) =     27.02565  eV     1   --> A              
     e( 28 - 28) =     27.55373  eV     1   --> A              
     e( 29 - 29) =     28.11020  eV     1   --> A              
     e( 30 - 30) =     28.67489  eV     1   --> A              

 **************************************************************************

 **************************************************************************

                    xk=(   0.14528,   0.25148,   0.62197  )

     Band symmetry, C_1 (1)     point group:

     e(  1 -  1) =    -26.55177  eV     1   --> A              
     e(  2 -  2) =    -26.55037  eV     1   --> A              
     e(  3 -  3) =    -26.53821  eV     1   --> A              
     e(  4 -  4) =    -26.53771  eV     1   --> A              
     e(  5 -  5) =    -26.53149  eV     1   --> A              
     e(  6 -  6) =    -14.49751  eV     1   --> A              
     e(  7 -  7) =    -14.49432  eV     1   --> A              
     e(  8 -  8) =    -14.48682  eV     1   --> A              
     e(  9 -  9) =    -14.48577  eV     1   --> A              
     e( 10 - 10) =    -14.47986  eV     1   --> A              
     e( 11 - 11) =     -0.69759  eV     1   --> A              
     e( 12 - 12) =      1.92051  eV     1   --> A              
     e( 13 - 13) =      6.54380  eV     1   --> A              
     e( 14 - 14) =      6.71165  eV     1   --> A              
     e( 15 - 15) =      9.62912  eV     1   --> A              
     e( 16 - 16) =     11.35036  eV     1   --> A              
     e( 17 - 17) =     14.28900  eV     1   --> A              
     e( 18 - 18) =     14.49132  eV     1   --> A              
     e( 19 - 19) =     16.91267  eV     1   --> A              
     e( 20 - 20) =     17.30835  eV     1   --> A              
     e( 21 - 21) =     21.18335  eV     1   --> A              
     e( 22 - 22) =     21.41850  eV     1   --> A              
     e( 23 - 23) =     23.41076  eV     1   --> A              
     e( 24 - 24) =     23.70203  eV     1   --> A              
     e( 25 - 25) =     24.59315  eV     1   --> A              
     e( 26 - 26) =     25.43625  eV     1   --> A              
     e( 27 - 27) =     27.19942  eV     1   --> A              
     e( 28 - 28) =     27.65876  eV     1   --> A              
     e( 29 - 29) =     28.19317  eV     1   --> A              
     e( 30 - 30) =     28.66148  eV     1   --> A              

 **************************************************************************

 **************************************************************************

                    xk=(   0.14028,   0.24281,   0.62223  )

     Band symmetry, C_1 (1)     point group:

     e(  1 -  1) =    -26.55178  eV     1   --> A              
     e(  2 -  2) =    -26.55036  eV     1   --> A              
     e(  3 -  3) =    -26.53821  eV     1   --> A              
     e(  4 -  4) =    -26.53772  eV     1   --> A              
     e(  5 -  5) =    -26.53150  eV     1   --> A              
     e(  6 -  6) =    -14.49750  eV     1   --> A              
     e(  7 -  7) =    -14.49430  eV     1   --> A              
     e(  8 -  8) =    -14.48681  eV     1   --> A              
     e(  9 -  9) =    -14.48581  eV     1   --> A              
     e( 10 - 10) =    -14.47986  eV     1   --> A              
     e( 11 - 11) =     -0.70898  eV     1   --> A              
     e( 12 - 12) =      1.89749  eV     1   --> A              
     e( 13 - 13) =      6.61269  eV     1   --> A              
     e( 14 - 14) =      6.79020  eV     1   --> A              
     e( 15 - 15) =      9.62280  eV     1   --> A              
     e( 16 - 16) =     11.33306  eV     1   --> A              
     e( 17 - 17) =     14.16013  eV     1   --> A              
     e( 18 - 18) =     14.37118  eV     1   --> A              
     e( 19 - 19) =     16.96158  eV     1   --> A              
     e( 20 - 20) =     17.37888  eV     1   --> A              
     e( 21 - 21) =     21.14204  eV     1   --> A              
     e( 22 - 22) =     21.37141  eV     1   --> A              
     e( 23 - 23) =     23.38761  eV     1   --> A              
     e( 24 - 24) =     23.74864  eV     1   --> A              
     e( 25 - 25) =     24.54081  eV     1   --> A              
     e( 26 - 26) =     25.34572  eV     1   --> A              
     e( 27 - 27) =     27.35636  eV     1   --> A              
     e( 28 - 28) =     27.73724  eV     1   --> A              
     e( 29 - 29) =     28.31921  eV     1   --> A              
     e( 30 - 30) =     28.65185  eV     1   --> A              

 **************************************************************************

 **************************************************************************

                    xk=(   0.13528,   0.23414,   0.62250  )

     Band symmetry, C_1 (1)     point group:

     e(  1 -  1) =    -26.55179  eV     1   --> A              
     e(  2 -  2) =    -26.55034  eV     1   --> A              
     e(  3 -  3) =    -26.53821  eV     1   --> A              
     e(  4 -  4) =    -26.53774  eV     1   --> A              
     e(  5 -  5) =    -26.53150  eV     1   --> A              
     e(  6 -  6) =    -14.49749  eV     1   --> A              
     e(  7 -  7) =    -14.49429  eV     1   --> A              
     e(  8 -  8) =    -14.48680  eV     1   --> A              
     e(  9 -  9) =    -14.48586  eV     1   --> A              
     e( 10 - 10) =    -14.47987  eV     1   --> A              
     e( 11 - 11) =     -0.72048  eV     1   --> A              
     e( 12 - 12) =      1.87466  eV     1   --> A              
     e( 13 - 13) =      6.68400  eV     1   --> A              
     e( 14 - 14) =      6.87070  eV     1   --> A              
     e( 15 - 15) =      9.61688  eV     1   --> A              
     e( 16 - 16) =     11.31570  eV     1   --> A              
     e( 17 - 17) =     14.02795  eV     1   --> A              
     e( 18 - 18) =     14.24867  eV     1   --> A              
     e( 19 - 19) =     17.01393  eV     1   --> A              
     e( 20 - 20) =     17.45388  eV     1   --> A              
     e( 21 - 21) =     21.10172  eV     1   --> A              
     e( 22 - 22) =     21.32478  eV     1   --> A              
     e( 23 - 23) =     23.33935  eV     1   --> A              
     e( 24 - 24) =     23.78633  eV     1   --> A              
     e( 25 - 25) =     24.51387  eV     1   --> A              
     e( 26 - 26) =     25.26854  eV     1   --> A              
     e( 27 - 27) =     27.47661  eV     1   --> A              
     e( 28 - 28) =     27.81828  eV     1   --> A              
     e( 29 - 29) =     28.47305  eV     1   --> A              
     e( 30 - 30) =     28.65035  eV     1   --> A              

 **************************************************************************

 **************************************************************************

                    xk=(   0.13027,   0.22548,   0.62277  )

     Band symmetry, C_1 (1)     point group:

     e(  1 -  1) =    -26.55180  eV     1   --> A              
     e(  2 -  2) =    -26.55033  eV     1   --> A              
     e(  3 -  3) =    -26.53821  eV     1   --> A              
     e(  4 -  4) =    -26.53776  eV     1   --> A              
     e(  5 -  5) =    -26.53151  eV     1   --> A              
     e(  6 -  6) =    -14.49749  eV     1   --> A              
     e(  7 -  7) =    -14.49427  eV     1   --> A              
     e(  8 -  8) =    -14.48679  eV     1   --> A              
     e(  9 -  9) =    -14.48590  eV     1   --> A              
     e( 10 - 10) =    -14.47988  eV     1   --> A              
     e( 11 - 11) =     -0.73194  eV     1   --> A              
     e( 12 - 12) =      1.85210  eV     1   --> A              
     e( 13 - 13) =      6.75763  eV     1   --> A              
     e( 14 - 14) =      6.95298  eV     1   --> A              
     e( 15 - 15) =      9.61146  eV     1   --> A              
     e( 16 - 16) =     11.29837  eV     1   --> A              
     e( 17 - 17) =     13.89325  eV     1   --> A              
     e( 18 - 18) =     14.12396  eV     1   --> A              
     e( 19 - 19) =     17.06970  eV     1   --> A              
     e( 20 - 20) =     17.53286  eV     1   --> A              
     e( 21 - 21) =     21.06251  eV     1   --> A              
     e( 22 - 22) =     21.27888  eV     1   --> A              
     e( 23 - 23) =     23.26737  eV     1   --> A              
     e( 24 - 24) =     23.80981  eV     1   --> A              
     e( 25 - 25) =     24.51176  eV     1   --> A              
     e( 26 - 26) =     25.20912  eV     1   --> A              
     e( 27 - 27) =     27.54396  eV     1   --> A              
     e( 28 - 28) =     27.92536  eV     1   --> A              
     e( 29 - 29) =     28.61989  eV     1   --> A              
     e( 30 - 30) =     28.68250  eV     1   --> A              

 **************************************************************************

 **************************************************************************

                    xk=(   0.12527,   0.21681,   0.62304  )

     Band symmetry, C_1 (1)     point group:

     e(  1 -  1) =    -26.55181  eV     1   --> A              
     e(  2 -  2) =    -26.55031  eV     1   --> A              
     e(  3 -  3) =    -26.53821  eV     1   --> A              
     e(  4 -  4) =    -26.53778  eV     1   --> A              
     e(  5 -  5) =    -26.53151  eV     1   --> A              
     e(  6 -  6) =    -14.49748  eV     1   --> A              
     e(  7 -  7) =    -14.49426  eV     1   --> A              
     e(  8 -  8) =    -14.48678  eV     1   --> A              
     e(  9 -  9) =    -14.48594  eV     1   --> A              
     e( 10 - 10) =    -14.47988  eV     1   --> A              
     e( 11 - 11) =     -0.74335  eV     1   --> A              
     e( 12 - 12) =      1.82987  eV     1   --> A              
     e( 13 - 13) =      6.83347  eV     1   --> A              
     e( 14 - 14) =      7.03686  eV     1   --> A              
     e( 15 - 15) =      9.60665  eV     1   --> A              
     e( 16 - 16) =     11.28110  eV     1   --> A              
     e( 17 - 17) =     13.75664  eV     1   --> A              
     e( 18 - 18) =     13.99724  eV     1   --> A              
     e( 19 - 19) =     17.12887  eV     1   --> A              
     e( 20 - 20) =     17.61542  eV     1   --> A              
     e( 21 - 21) =     21.02450  eV     1   --> A              
     e( 22 - 22) =     21.23391  eV     1   --> A              
     e( 23 - 23) =     23.17564  eV     1   --> A              
     e( 24 - 24) =     23.81342  eV     1   --> A              
     e( 25 - 25) =     24.53208  eV     1   --> A              
     e( 26 - 26) =     25.17146  eV     1   --> A              
     e( 27 - 27) =     27.56996  eV     1   --> A              
     e( 28 - 28) =     28.04434  eV     1   --> A              
     e( 29 - 29) =     28.67511  eV     1   --> A              
     e( 30 - 30) =     28.83258  eV     1   --> A              

 **************************************************************************

 **************************************************************************

                    xk=(   0.12027,   0.20814,   0.62331  )

     Band symmetry, C_1 (1)     point group:

     e(  1 -  1) =    -26.55181  eV     1   --> A              
     e(  2 -  2) =    -26.55030  eV     1   --> A              
     e(  3 -  3) =    -26.53821  eV     1   --> A              
     e(  4 -  4) =    -26.53780  eV     1   --> A              
     e(  5 -  5) =    -26.53151  eV     1   --> A              
     e(  6 -  6) =    -14.49747  eV     1   --> A              
     e(  7 -  7) =    -14.49424  eV     1   --> A              
     e(  8 -  8) =    -14.48677  eV     1   --> A              
     e(  9 -  9) =    -14.48599  eV     1   --> A              
     e( 10 - 10) =    -14.47988  eV     1   --> A              
     e( 11 - 11) =     -0.75467  eV     1   --> A              
     e( 12 - 12) =      1.80805  eV     1   --> A              
     e( 13 - 13) =      6.91141  eV     1   --> A              
     e( 14 - 14) =      7.12214  eV     1   --> A              
     e( 15 - 15) =      9.60257  eV     1   --> A              
     e( 16 - 16) =     11.26395  eV     1   --> A              
     e( 17 - 17) =     13.61867  eV     1   --> A              
     e( 18 - 18) =     13.86877  eV     1   --> A              
     e( 19 - 19) =     17.19135  eV     1   --> A              
     e( 20 - 20) =     17.70122  eV     1   --> A              
     e( 21 - 21) =     20.98775  eV     1   --> A              
     e( 22 - 22) =     21.19004  eV     1   --> A              
     e( 23 - 23) =     23.06891  eV     1   --> A              
     e( 24 - 24) =     23.79305  eV     1   --> A              
     e( 25 - 25) =     24.57176  eV     1   --> A              
     e( 26 - 26) =     25.15794  eV     1   --> A              
     e( 27 - 27) =     27.57451  eV     1   --> A              
     e( 28 - 28) =     28.14469  eV     1   --> A              
     e( 29 - 29) =     28.74289  eV     1   --> A              
     e( 30 - 30) =     29.00304  eV     1   --> A              

 **************************************************************************

 **************************************************************************

                    xk=(   0.11526,   0.19948,   0.62358  )

     Band symmetry, C_1 (1)     point group:

     e(  1 -  1) =    -26.55182  eV     1   --> A              
     e(  2 -  2) =    -26.55028  eV     1   --> A              
     e(  3 -  3) =    -26.53821  eV     1   --> A              
     e(  4 -  4) =    -26.53781  eV     1   --> A              
     e(  5 -  5) =    -26.53152  eV     1   --> A              
     e(  6 -  6) =    -14.49746  eV     1   --> A              
     e(  7 -  7) =    -14.49423  eV     1   --> A              
     e(  8 -  8) =    -14.48676  eV     1   --> A              
     e(  9 -  9) =    -14.48603  eV     1   --> A              
     e( 10 - 10) =    -14.47989  eV     1   --> A              
     e( 11 - 11) =     -0.76587  eV     1   --> A              
     e( 12 - 12) =      1.78671  eV     1   --> A              
     e( 13 - 13) =      6.99133  eV     1   --> A              
     e( 14 - 14) =      7.20862  eV     1   --> A              
     e( 15 - 15) =      9.59935  eV     1   --> A              
     e( 16 - 16) =     11.24697  eV     1   --> A              
     e( 17 - 17) =     13.47980  eV     1   --> A              
     e( 18 - 18) =     13.73880  eV     1   --> A              
     e( 19 - 19) =     17.25704  eV     1   --> A              
     e( 20 - 20) =     17.78995  eV     1   --> A              
     e( 21 - 21) =     20.95232  eV     1   --> A              
     e( 22 - 22) =     21.14738  eV     1   --> A              
     e( 23 - 23) =     22.95144  eV     1   --> A              
     e( 24 - 24) =     23.74777  eV     1   --> A              
     e( 25 - 25) =     24.62762  eV     1   --> A              
     e( 26 - 26) =     25.16831  eV     1   --> A              
     e( 27 - 27) =     27.56875  eV     1   --> A              
     e( 28 - 28) =     28.20780  eV     1   --> A              
     e( 29 - 29) =     28.85296  eV     1   --> A              
     e( 30 - 30) =     29.16572  eV     1   --> A              

 **************************************************************************

 **************************************************************************

                    xk=(   0.11026,   0.19081,   0.62385  )

     Band symmetry, C_1 (1)     point group:

     e(  1 -  1) =    -26.55183  eV     1   --> A              
     e(  2 -  2) =    -26.55027  eV     1   --> A              
     e(  3 -  3) =    -26.53821  eV     1   --> A              
     e(  4 -  4) =    -26.53783  eV     1   --> A              
     e(  5 -  5) =    -26.53152  eV     1   --> A              
     e(  6 -  6) =    -14.49746  eV     1   --> A              
     e(  7 -  7) =    -14.49421  eV     1   --> A              
     e(  8 -  8) =    -14.48675  eV     1   --> A              
     e(  9 -  9) =    -14.48607  eV     1   --> A              
     e( 10 - 10) =    -14.47989  eV     1   --> A              
     e( 11 - 11) =     -0.77689  eV     1   --> A              
     e( 12 - 12) =      1.76590  eV     1   --> A              
     e( 13 - 13) =      7.07309  eV     1   --> A              
     e( 14 - 14) =      7.29608  eV     1   --> A              
     e( 15 - 15) =      9.59715  eV     1   --> A              
     e( 16 - 16) =     11.23019  eV     1   --> A              
     e( 17 - 17) =     13.34047  eV     1   --> A              
     e( 18 - 18) =     13.60761  eV     1   --> A              
     e( 19 - 19) =     17.32584  eV     1   --> A              
     e( 20 - 20) =     17.88136  eV     1   --> A              
     e( 21 - 21) =     20.91823  eV     1   --> A              
     e( 22 - 22) =     21.10605  eV     1   --> A              
     e( 23 - 23) =     22.82658  eV     1   --> A              
     e( 24 - 24) =     23.67990  eV     1   --> A              
     e( 25 - 25) =     24.69653  eV     1   --> A              
     e( 26 - 26) =     25.20010  eV     1   --> A              
     e( 27 - 27) =     27.55780  eV     1   --> A              
     e( 28 - 28) =     28.23567  eV     1   --> A              
     e( 29 - 29) =     28.99902  eV     1   --> A              
     e( 30 - 30) =     29.31152  eV     1   --> A              

 **************************************************************************

 **************************************************************************

                    xk=(   0.10526,   0.18215,   0.62411  )

     Band symmetry, C_1 (1)     point group:

     e(  1 -  1) =    -26.55184  eV     1   --> A              
     e(  2 -  2) =    -26.55026  eV     1   --> A              
     e(  3 -  3) =    -26.53821  eV     1   --> A              
     e(  4 -  4) =    -26.53784  eV     1   --> A              
     e(  5 -  5) =    -26.53153  eV     1   --> A              
     e(  6 -  6) =    -14.49745  eV     1   --> A              
     e(  7 -  7) =    -14.49420  eV     1   --> A              
     e(  8 -  8) =    -14.48674  eV     1   --> A              
     e(  9 -  9) =    -14.48611  eV     1   --> A              
     e( 10 - 10) =    -14.47989  eV     1   --> A              
     e( 11 - 11) =     -0.78770  eV     1   --> A              
     e( 12 - 12) =      1.74569  eV     1   --> A              
     e( 13 - 13) =      7.15655  eV     1   --> A              
     e( 14 - 14) =      7.38427  eV     1   --> A              
     e( 15 - 15) =      9.59611  eV     1   --> A              
     e( 16 - 16) =     11.21365  eV     1   --> A              
     e( 17 - 17) =     13.20105  eV     1   --> A              
     e( 18 - 18) =     13.47550  eV     1   --> A              
     e( 19 - 19) =     17.39762  eV     1   --> A              
     e( 20 - 20) =     17.97520  eV     1   --> A              
     e( 21 - 21) =     20.88554  eV     1   --> A              
     e( 22 - 22) =     21.06609  eV     1   --> A              
     e( 23 - 23) =     22.69683  eV     1   --> A              
     e( 24 - 24) =     23.59350  eV     1   --> A              
     e( 25 - 25) =     24.77564  eV     1   --> A              
     e( 26 - 26) =     25.24961  eV     1   --> A              
     e( 27 - 27) =     27.54412  eV     1   --> A              
     e( 28 - 28) =     28.24000  eV     1   --> A              
     e( 29 - 29) =     29.16440  eV     1   --> A              
     e( 30 - 30) =     29.43240  eV     1   --> A              

 **************************************************************************

 **************************************************************************

                    xk=(   0.10025,   0.17348,   0.62438  )

     Band symmetry, C_1 (1)     point group:

     e(  1 -  1) =    -26.55185  eV     1   --> A              
     e(  2 -  2) =    -26.55024  eV     1   --> A              
     e(  3 -  3) =    -26.53822  eV     1   --> A              
     e(  4 -  4) =    -26.53785  eV     1   --> A              
     e(  5 -  5) =    -26.53153  eV     1   --> A              
     e(  6 -  6) =    -14.49745  eV     1   --> A              
     e(  7 -  7) =    -14.49418  eV     1   --> A              
     e(  8 -  8) =    -14.48674  eV     1   --> A              
     e(  9 -  9) =    -14.48615  eV     1   --> A              
     e( 10 - 10) =    -14.47990  eV     1   --> A              
     e( 11 - 11) =     -0.79826  eV     1   --> A              
     e( 12 - 12) =      1.72612  eV     1   --> A              
     e( 13 - 13) =      7.24155  eV     1   --> A              
     e( 14 - 14) =      7.47291  eV     1   --> A              
     e( 15 - 15) =      9.59644  eV     1   --> A              
     e( 16 - 16) =     11.19738  eV     1   --> A              
     e( 17 - 17) =     13.06189  eV     1   --> A              
     e( 18 - 18) =     13.34274  eV     1   --> A              
     e( 19 - 19) =     17.47224  eV     1   --> A              
     e( 20 - 20) =     18.07125  eV     1   --> A              
     e( 21 - 21) =     20.85426  eV     1   --> A              
     e( 22 - 22) =     21.02756  eV     1   --> A              
     e( 23 - 23) =     22.56398  eV     1   --> A              
     e( 24 - 24) =     23.49290  eV     1   --> A              
     e( 25 - 25) =     24.86256  eV     1   --> A              
     e( 26 - 26) =     25.31311  eV     1   --> A              
     e( 27 - 27) =     27.52901  eV     1   --> A              
     e( 28 - 28) =     28.23031  eV     1   --> A              
     e( 29 - 29) =     29.32968  eV     1   --> A              
     e( 30 - 30) =     29.52726  eV     1   --> A              

 **************************************************************************

 **************************************************************************

                    xk=(   0.09525,   0.16481,   0.62465  )

     Band symmetry, C_1 (1)     point group:

     e(  1 -  1) =    -26.55185  eV     1   --> A              
     e(  2 -  2) =    -26.55023  eV     1   --> A              
     e(  3 -  3) =    -26.53822  eV     1   --> A              
     e(  4 -  4) =    -26.53786  eV     1   --> A              
     e(  5 -  5) =    -26.53153  eV     1   --> A              
     e(  6 -  6) =    -14.49744  eV     1   --> A              
     e(  7 -  7) =    -14.49417  eV     1   --> A              
     e(  8 -  8) =    -14.48673  eV     1   --> A              
     e(  9 -  9) =    -14.48619  eV     1   --> A              
     e( 10 - 10) =    -14.47990  eV     1   --> A              
     e( 11 - 11) =     -0.80851  eV     1   --> A              
     e( 12 - 12) =      1.70725  eV     1   --> A              
     e( 13 - 13) =      7.32792  eV     1   --> A              
     e( 14 - 14) =      7.56172  eV     1   --> A              
     e( 15 - 15) =      9.59834  eV     1   --> A              
     e( 16 - 16) =     11.18140  eV     1   --> A              
     e( 17 - 17) =     12.92335  eV     1   --> A              
     e( 18 - 18) =     13.20963  eV     1   --> A              
     e( 19 - 19) =     17.54957  eV     1   --> A              
     e( 20 - 20) =     18.16930  eV     1   --> A              
     e( 21 - 21) =     20.82440  eV     1   --> A              
     e( 22 - 22) =     20.99048  eV     1   --> A              
     e( 23 - 23) =     22.42939  eV     1   --> A              
     e( 24 - 24) =     23.38179  eV     1   --> A              
     e( 25 - 25) =     24.95553  eV     1   --> A              
     e( 26 - 26) =     25.38739  eV     1   --> A              
     e( 27 - 27) =     27.51321  eV     1   --> A              
     e( 28 - 28) =     28.21204  eV     1   --> A              
     e( 29 - 29) =     29.45818  eV     1   --> A              
     e( 30 - 30) =     29.62245  eV     1   --> A              

 **************************************************************************

 **************************************************************************

                    xk=(   0.09025,   0.15615,   0.62492  )

     Band symmetry, C_1 (1)     point group:

     e(  1 -  1) =    -26.55186  eV     1   --> A              
     e(  2 -  2) =    -26.55022  eV     1   --> A              
     e(  3 -  3) =    -26.53823  eV     1   --> A              
     e(  4 -  4) =    -26.53787  eV     1   --> A              
     e(  5 -  5) =    -26.53153  eV     1   --> A              
     e(  6 -  6) =    -14.49744  eV     1   --> A              
     e(  7 -  7) =    -14.49415  eV     1   --> A              
     e(  8 -  8) =    -14.48672  eV     1   --> A              
     e(  9 -  9) =    -14.48623  eV     1   --> A              
     e( 10 - 10) =    -14.47990  eV     1   --> A              
     e( 11 - 11) =     -0.81845  eV     1   --> A              
     e( 12 - 12) =      1.68911  eV     1   --> A              
     e( 13 - 13) =      7.41547  eV     1   --> A              
     e( 14 - 14) =      7.65034  eV     1   --> A              
     e( 15 - 15) =      9.60205  eV     1   --> A              
     e( 16 - 16) =     11.16571  eV     1   --> A              
     e( 17 - 17) =     12.78575  eV     1   --> A              
     e( 18 - 18) =     13.07648  eV     1   --> A              
     e( 19 - 19) =     17.62946  eV     1   --> A              
     e( 20 - 20) =     18.26913  eV     1   --> A              
     e( 21 - 21) =     20.79598  eV     1   --> A              
     e( 22 - 22) =     20.95485  eV     1   --> A              
     e( 23 - 23) =     22.29409  eV     1   --> A              
     e( 24 - 24) =     23.26310  eV     1   --> A              
     e( 25 - 25) =     25.05321  eV     1   --> A              
     e( 26 - 26) =     25.46991  eV     1   --> A              
     e( 27 - 27) =     27.49719  eV     1   --> A              
     e( 28 - 28) =     28.18800  eV     1   --> A              
     e( 29 - 29) =     29.51077  eV     1   --> A              
     e( 30 - 30) =     29.75449  eV     1   --> A              

 **************************************************************************

 **************************************************************************

                    xk=(   0.08524,   0.14748,   0.62519  )

     Band symmetry, C_1 (1)     point group:

     e(  1 -  1) =    -26.55187  eV     1   --> A              
     e(  2 -  2) =    -26.55020  eV     1   --> A              
     e(  3 -  3) =    -26.53824  eV     1   --> A              
     e(  4 -  4) =    -26.53788  eV     1   --> A              
     e(  5 -  5) =    -26.53154  eV     1   --> A              
     e(  6 -  6) =    -14.49743  eV     1   --> A              
     e(  7 -  7) =    -14.49414  eV     1   --> A              
     e(  8 -  8) =    -14.48672  eV     1   --> A              
     e(  9 -  9) =    -14.48626  eV     1   --> A              
     e( 10 - 10) =    -14.47990  eV     1   --> A              
     e( 11 - 11) =     -0.82806  eV     1   --> A              
     e( 12 - 12) =      1.67176  eV     1   --> A              
     e( 13 - 13) =      7.50396  eV     1   --> A              
     e( 14 - 14) =      7.73840  eV     1   --> A              
     e( 15 - 15) =      9.60784  eV     1   --> A              
     e( 16 - 16) =     11.15030  eV     1   --> A              
     e( 17 - 17) =     12.64942  eV     1   --> A              
     e( 18 - 18) =     12.94359  eV     1   --> A              
     e( 19 - 19) =     17.71176  eV     1   --> A              
     e( 20 - 20) =     18.37051  eV     1   --> A              
     e( 21 - 21) =     20.76898  eV     1   --> A              
     e( 22 - 22) =     20.92065  eV     1   --> A              
     e( 23 - 23) =     22.15889  eV     1   --> A              
     e( 24 - 24) =     23.13903  eV     1   --> A              
     e( 25 - 25) =     25.15464  eV     1   --> A              
     e( 26 - 26) =     25.55874  eV     1   --> A              
     e( 27 - 27) =     27.48122  eV     1   --> A              
     e( 28 - 28) =     28.15965  eV     1   --> A              
     e( 29 - 29) =     29.51729  eV     1   --> A              
     e( 30 - 30) =     29.88974  eV     1   --> A              

 **************************************************************************

 **************************************************************************

                    xk=(   0.08024,   0.13881,   0.62546  )

     Band symmetry, C_1 (1)     point group:

     e(  1 -  1) =    -26.55187  eV     1   --> A              
     e(  2 -  2) =    -26.55019  eV     1   --> A              
     e(  3 -  3) =    -26.53824  eV     1   --> A              
     e(  4 -  4) =    -26.53789  eV     1   --> A              
     e(  5 -  5) =    -26.53154  eV     1   --> A              
     e(  6 -  6) =    -14.49743  eV     1   --> A              
     e(  7 -  7) =    -14.49412  eV     1   --> A              
     e(  8 -  8) =    -14.48671  eV     1   --> A              
     e(  9 -  9) =    -14.48630  eV     1   --> A              
     e( 10 - 10) =    -14.47990  eV     1   --> A              
     e( 11 - 11) =     -0.83727  eV     1   --> A              
     e( 12 - 12) =      1.65521  eV     1   --> A              
     e( 13 - 13) =      7.59316  eV     1   --> A              
     e( 14 - 14) =      7.82546  eV     1   --> A              
     e( 15 - 15) =      9.61602  eV     1   --> A              
     e( 16 - 16) =     11.13517  eV     1   --> A              
     e( 17 - 17) =     12.51473  eV     1   --> A              
     e( 18 - 18) =     12.81129  eV     1   --> A              
     e( 19 - 19) =     17.79630  eV     1   --> A              
     e( 20 - 20) =     18.47320  eV     1   --> A              
     e( 21 - 21) =     20.74342  eV     1   --> A              
     e( 22 - 22) =     20.88782  eV     1   --> A              
     e( 23 - 23) =     22.02453  eV     1   --> A              
     e( 24 - 24) =     23.01124  eV     1   --> A              
     e( 25 - 25) =     25.25906  eV     1   --> A              
     e( 26 - 26) =     25.65239  eV     1   --> A              
     e( 27 - 27) =     27.46549  eV     1   --> A              
     e( 28 - 28) =     28.12771  eV     1   --> A              
     e( 29 - 29) =     29.50363  eV     1   --> A              
     e( 30 - 30) =     29.99269  eV     1   --> A              

 **************************************************************************

 **************************************************************************

                    xk=(   0.07523,   0.13015,   0.62572  )

     Band symmetry, C_1 (1)     point group:

     e(  1 -  1) =    -26.55188  eV     1   --> A              
     e(  2 -  2) =    -26.55018  eV     1   --> A              
     e(  3 -  3) =    -26.53825  eV     1   --> A              
     e(  4 -  4) =    -26.53790  eV     1   --> A              
     e(  5 -  5) =    -26.53154  eV     1   --> A              
     e(  6 -  6) =    -14.49742  eV     1   --> A              
     e(  7 -  7) =    -14.49411  eV     1   --> A              
     e(  8 -  8) =    -14.48671  eV     1   --> A              
     e(  9 -  9) =    -14.48633  eV     1   --> A              
     e( 10 - 10) =    -14.47990  eV     1   --> A              
     e( 11 - 11) =     -0.84606  eV     1   --> A              
     e( 12 - 12) =      1.63952  eV     1   --> A              
     e( 13 - 13) =      7.68276  eV     1   --> A              
     e( 14 - 14) =      7.91105  eV     1   --> A              
     e( 15 - 15) =      9.62693  eV     1   --> A              
     e( 16 - 16) =     11.12027  eV     1   --> A              
[...]

 **************************************************************************

                    xk=(   0.31522,   0.17404,   0.51773  )

     Band symmetry, C_1 (1)     point group:

     e(  1 -  1) =    -26.55210  eV     1   --> A              
     e(  2 -  2) =    -26.55073  eV     1   --> A              
     e(  3 -  3) =    -26.53777  eV     1   --> A              
     e(  4 -  4) =    -26.53752  eV     1   --> A              
     e(  5 -  5) =    -26.53170  eV     1   --> A              
     e(  6 -  6) =    -14.49776  eV     1   --> A              
     e(  7 -  7) =    -14.49485  eV     1   --> A              
     e(  8 -  8) =    -14.48611  eV     1   --> A              
     e(  9 -  9) =    -14.48533  eV     1   --> A              
     e( 10 - 10) =    -14.48024  eV     1   --> A              
     e( 11 - 11) =     -0.84149  eV     1   --> A              
     e( 12 - 12) =      2.13914  eV     1   --> A              
     e( 13 - 13) =      5.78896  eV     1   --> A              
     e( 14 - 14) =      7.96544  eV     1   --> A              
     e( 15 - 15) =      8.71695  eV     1   --> A              
     e( 16 - 16) =     12.68400  eV     1   --> A              
     e( 17 - 17) =     12.86513  eV     1   --> A              
     e( 18 - 18) =     15.79026  eV     1   --> A              
     e( 19 - 19) =     16.77542  eV     1   --> A              
     e( 20 - 20) =     17.89586  eV     1   --> A              
     e( 21 - 21) =     18.86197  eV     1   --> A              
     e( 22 - 22) =     21.10179  eV     1   --> A              
     e( 23 - 23) =     23.87960  eV     1   --> A              
     e( 24 - 24) =     25.01291  eV     1   --> A              
     e( 25 - 25) =     25.63343  eV     1   --> A              
     e( 26 - 26) =     26.12066  eV     1   --> A              
     e( 27 - 27) =     26.29221  eV     1   --> A              
     e( 28 - 28) =     26.88171  eV     1   --> A              
     e( 29 - 29) =     27.58758  eV     1   --> A              
     e( 30 - 30) =     28.53904  eV     1   --> A              

 **************************************************************************

 **************************************************************************

                    xk=(   0.32273,   0.17819,   0.53006  )

     Band symmetry, C_1 (1)     point group:

     e(  1 -  1) =    -26.55210  eV     1   --> A              
     e(  2 -  2) =    -26.55068  eV     1   --> A              
     e(  3 -  3) =    -26.53781  eV     1   --> A              
     e(  4 -  4) =    -26.53749  eV     1   --> A              
     e(  5 -  5) =    -26.53168  eV     1   --> A              
     e(  6 -  6) =    -14.49783  eV     1   --> A              
     e(  7 -  7) =    -14.49476  eV     1   --> A              
     e(  8 -  8) =    -14.48620  eV     1   --> A              
     e(  9 -  9) =    -14.48527  eV     1   --> A              
     e( 10 - 10) =    -14.48021  eV     1   --> A              
     e( 11 - 11) =     -0.80681  eV     1   --> A              
     e( 12 - 12) =      2.13631  eV     1   --> A              
     e( 13 - 13) =      5.72821  eV     1   --> A              
     e( 14 - 14) =      7.89389  eV     1   --> A              
     e( 15 - 15) =      8.61726  eV     1   --> A              
     e( 16 - 16) =     12.81121  eV     1   --> A              
     e( 17 - 17) =     12.96670  eV     1   --> A              
     e( 18 - 18) =     15.87920  eV     1   --> A              
     e( 19 - 19) =     16.56390  eV     1   --> A              
     e( 20 - 20) =     18.02539  eV     1   --> A              
     e( 21 - 21) =     19.00064  eV     1   --> A              
     e( 22 - 22) =     21.22097  eV     1   --> A              
     e( 23 - 23) =     24.12194  eV     1   --> A              
     e( 24 - 24) =     24.73651  eV     1   --> A              
     e( 25 - 25) =     25.57228  eV     1   --> A              
     e( 26 - 26) =     26.05482  eV     1   --> A              
     e( 27 - 27) =     26.23117  eV     1   --> A              
     e( 28 - 28) =     26.76387  eV     1   --> A              
     e( 29 - 29) =     27.46020  eV     1   --> A              
     e( 30 - 30) =     28.81426  eV     1   --> A              

 **************************************************************************

 **************************************************************************

                    xk=(   0.33023,   0.18233,   0.54239  )

     Band symmetry, C_1 (1)     point group:

     e(  1 -  1) =    -26.55211  eV     1   --> A              
     e(  2 -  2) =    -26.55064  eV     1   --> A              
     e(  3 -  3) =    -26.53785  eV     1   --> A              
     e(  4 -  4) =    -26.53747  eV     1   --> A              
     e(  5 -  5) =    -26.53165  eV     1   --> A              
     e(  6 -  6) =    -14.49790  eV     1   --> A              
     e(  7 -  7) =    -14.49467  eV     1   --> A              
     e(  8 -  8) =    -14.48629  eV     1   --> A              
     e(  9 -  9) =    -14.48521  eV     1   --> A              
     e( 10 - 10) =    -14.48017  eV     1   --> A              
     e( 11 - 11) =     -0.77619  eV     1   --> A              
     e( 12 - 12) =      2.14084  eV     1   --> A              
     e( 13 - 13) =      5.67044  eV     1   --> A              
     e( 14 - 14) =      7.82418  eV     1   --> A              
     e( 15 - 15) =      8.51885  eV     1   --> A              
     e( 16 - 16) =     12.94201  eV     1   --> A              
     e( 17 - 17) =     13.06309  eV     1   --> A              
     e( 18 - 18) =     15.96601  eV     1   --> A              
     e( 19 - 19) =     16.36502  eV     1   --> A              
     e( 20 - 20) =     18.16013  eV     1   --> A              
     e( 21 - 21) =     19.14251  eV     1   --> A              
     e( 22 - 22) =     21.34185  eV     1   --> A              
     e( 23 - 23) =     24.32790  eV     1   --> A              
     e( 24 - 24) =     24.46137  eV     1   --> A              
     e( 25 - 25) =     25.50568  eV     1   --> A              
     e( 26 - 26) =     25.99779  eV     1   --> A              
     e( 27 - 27) =     26.17210  eV     1   --> A              
     e( 28 - 28) =     26.64957  eV     1   --> A              
     e( 29 - 29) =     27.34244  eV     1   --> A              
     e( 30 - 30) =     29.02155  eV     1   --> A              

 **************************************************************************

 **************************************************************************

                    xk=(   0.33774,   0.18647,   0.55471  )

     Band symmetry, C_1 (1)     point group:

     e(  1 -  1) =    -26.55211  eV     1   --> A              
     e(  2 -  2) =    -26.55060  eV     1   --> A              
     e(  3 -  3) =    -26.53790  eV     1   --> A              
     e(  4 -  4) =    -26.53744  eV     1   --> A              
     e(  5 -  5) =    -26.53163  eV     1   --> A              
     e(  6 -  6) =    -14.49796  eV     1   --> A              
     e(  7 -  7) =    -14.49457  eV     1   --> A              
     e(  8 -  8) =    -14.48639  eV     1   --> A              
     e(  9 -  9) =    -14.48516  eV     1   --> A              
     e( 10 - 10) =    -14.48012  eV     1   --> A              
     e( 11 - 11) =     -0.74969  eV     1   --> A              
     e( 12 - 12) =      2.15254  eV     1   --> A              
     e( 13 - 13) =      5.61577  eV     1   --> A              
     e( 14 - 14) =      7.75654  eV     1   --> A              
     e( 15 - 15) =      8.42173  eV     1   --> A              
     e( 16 - 16) =     13.07604  eV     1   --> A              
     e( 17 - 17) =     13.15251  eV     1   --> A              
     e( 18 - 18) =     16.04190  eV     1   --> A              
     e( 19 - 19) =     16.19006  eV     1   --> A              
     e( 20 - 20) =     18.29932  eV     1   --> A              
     e( 21 - 21) =     19.28753  eV     1   --> A              
     e( 22 - 22) =     21.46392  eV     1   --> A              
     e( 23 - 23) =     24.18839  eV     1   --> A              
     e( 24 - 24) =     24.47918  eV     1   --> A              
     e( 25 - 25) =     25.43210  eV     1   --> A              
     e( 26 - 26) =     25.96788  eV     1   --> A              
     e( 27 - 27) =     26.11507  eV     1   --> A              
     e( 28 - 28) =     26.53845  eV     1   --> A              
     e( 29 - 29) =     27.24409  eV     1   --> A              
     e( 30 - 30) =     28.97732  eV     1   --> A              

 **************************************************************************

 **************************************************************************

                    xk=(   0.34524,   0.19062,   0.56704  )

     Band symmetry, C_1 (1)     point group:

     e(  1 -  1) =    -26.55212  eV     1   --> A              
     e(  2 -  2) =    -26.55056  eV     1   --> A              
     e(  3 -  3) =    -26.53794  eV     1   --> A              
     e(  4 -  4) =    -26.53742  eV     1   --> A              
     e(  5 -  5) =    -26.53161  eV     1   --> A              
     e(  6 -  6) =    -14.49803  eV     1   --> A              
     e(  7 -  7) =    -14.49448  eV     1   --> A              
     e(  8 -  8) =    -14.48648  eV     1   --> A              
     e(  9 -  9) =    -14.48510  eV     1   --> A              
     e( 10 - 10) =    -14.48008  eV     1   --> A              
     e( 11 - 11) =     -0.72736  eV     1   --> A              
     e( 12 - 12) =      2.17108  eV     1   --> A              
     e( 13 - 13) =      5.56430  eV     1   --> A              
     e( 14 - 14) =      7.69113  eV     1   --> A              
     e( 15 - 15) =      8.32593  eV     1   --> A              
     e( 16 - 16) =     13.21294  eV     1   --> A              
     e( 17 - 17) =     13.23272  eV     1   --> A              
     e( 18 - 18) =     15.98500  eV     1   --> A              
     e( 19 - 19) =     16.16334  eV     1   --> A              
     e( 20 - 20) =     18.44260  eV     1   --> A              
     e( 21 - 21) =     19.43568  eV     1   --> A              
     e( 22 - 22) =     21.58662  eV     1   --> A              
     e( 23 - 23) =     23.91824  eV     1   --> A              
     e( 24 - 24) =     24.55735  eV     1   --> A              
     e( 25 - 25) =     25.35639  eV     1   --> A              
     e( 26 - 26) =     25.97167  eV     1   --> A              
     e( 27 - 27) =     26.05991  eV     1   --> A              
     e( 28 - 28) =     26.43021  eV     1   --> A              
     e( 29 - 29) =     27.17339  eV     1   --> A              
     e( 30 - 30) =     28.80912  eV     1   --> A              

 **************************************************************************

 **************************************************************************

                    xk=(   0.35275,   0.19476,   0.57937  )

     Band symmetry, C_1 (1)     point group:

     e(  1 -  1) =    -26.55212  eV     1   --> A              
     e(  2 -  2) =    -26.55052  eV     1   --> A              
     e(  3 -  3) =    -26.53799  eV     1   --> A              
     e(  4 -  4) =    -26.53740  eV     1   --> A              
     e(  5 -  5) =    -26.53158  eV     1   --> A              
     e(  6 -  6) =    -14.49810  eV     1   --> A              
     e(  7 -  7) =    -14.49439  eV     1   --> A              
     e(  8 -  8) =    -14.48658  eV     1   --> A              
     e(  9 -  9) =    -14.48504  eV     1   --> A              
     e( 10 - 10) =    -14.48004  eV     1   --> A              
     e( 11 - 11) =     -0.70893  eV     1   --> A              
     e( 12 - 12) =      2.19605  eV     1   --> A              
     e( 13 - 13) =      5.51617  eV     1   --> A              
     e( 14 - 14) =      7.62811  eV     1   --> A              
     e( 15 - 15) =      8.23146  eV     1   --> A              
     e( 16 - 16) =     13.30113  eV     1   --> A              
     e( 17 - 17) =     13.35238  eV     1   --> A              
     e( 18 - 18) =     15.84211  eV     1   --> A              
     e( 19 - 19) =     16.24074  eV     1   --> A              
     e( 20 - 20) =     18.58974  eV     1   --> A              
     e( 21 - 21) =     19.58691  eV     1   --> A              
     e( 22 - 22) =     21.70930  eV     1   --> A              
     e( 23 - 23) =     23.65157  eV     1   --> A              
     e( 24 - 24) =     24.55490  eV     1   --> A              
     e( 25 - 25) =     25.28880  eV     1   --> A              
     e( 26 - 26) =     25.99307  eV     1   --> A              
     e( 27 - 27) =     26.00616  eV     1   --> A              
     e( 28 - 28) =     26.32478  eV     1   --> A              
     e( 29 - 29) =     27.14074  eV     1   --> A              
     e( 30 - 30) =     28.63841  eV     1   --> A              

 **************************************************************************

 **************************************************************************

                    xk=(   0.36025,   0.19891,   0.59170  )

     Band symmetry, C_1 (1)     point group:

     e(  1 -  1) =    -26.55213  eV     1   --> A              
     e(  2 -  2) =    -26.55047  eV     1   --> A              
     e(  3 -  3) =    -26.53804  eV     1   --> A              
     e(  4 -  4) =    -26.53737  eV     1   --> A              
     e(  5 -  5) =    -26.53156  eV     1   --> A              
     e(  6 -  6) =    -14.49816  eV     1   --> A              
     e(  7 -  7) =    -14.49430  eV     1   --> A              
     e(  8 -  8) =    -14.48668  eV     1   --> A              
     e(  9 -  9) =    -14.48498  eV     1   --> A              
     e( 10 - 10) =    -14.48000  eV     1   --> A              
     e( 11 - 11) =     -0.69422  eV     1   --> A              
     e( 12 - 12) =      2.22693  eV     1   --> A              
     e( 13 - 13) =      5.47149  eV     1   --> A              
     e( 14 - 14) =      7.56761  eV     1   --> A              
     e( 15 - 15) =      8.13837  eV     1   --> A              
     e( 16 - 16) =     13.35480  eV     1   --> A              
     e( 17 - 17) =     13.49396  eV     1   --> A              
     e( 18 - 18) =     15.71523  eV     1   --> A              
     e( 19 - 19) =     16.32306  eV     1   --> A              
     e( 20 - 20) =     18.74059  eV     1   --> A              
     e( 21 - 21) =     19.74118  eV     1   --> A              
     e( 22 - 22) =     21.83106  eV     1   --> A              
     e( 23 - 23) =     23.38892  eV     1   --> A              
     e( 24 - 24) =     24.48311  eV     1   --> A              
     e( 25 - 25) =     25.23468  eV     1   --> A              
     e( 26 - 26) =     25.95277  eV     1   --> A              
     e( 27 - 27) =     26.00028  eV     1   --> A              
     e( 28 - 28) =     26.22253  eV     1   --> A              
     e( 29 - 29) =     27.15236  eV     1   --> A              
     e( 30 - 30) =     28.49643  eV     1   --> A              

 **************************************************************************

 **************************************************************************

                    xk=(   0.36776,   0.20305,   0.60402  )

     Band symmetry, C_1 (1)     point group:

     e(  1 -  1) =    -26.55213  eV     1   --> A              
     e(  2 -  2) =    -26.55043  eV     1   --> A              
     e(  3 -  3) =    -26.53809  eV     1   --> A              
     e(  4 -  4) =    -26.53735  eV     1   --> A              
     e(  5 -  5) =    -26.53154  eV     1   --> A              
     e(  6 -  6) =    -14.49822  eV     1   --> A              
     e(  7 -  7) =    -14.49420  eV     1   --> A              
     e(  8 -  8) =    -14.48678  eV     1   --> A              
     e(  9 -  9) =    -14.48493  eV     1   --> A              
     e( 10 - 10) =    -14.47996  eV     1   --> A              
     e( 11 - 11) =     -0.68303  eV     1   --> A              
     e( 12 - 12) =      2.26309  eV     1   --> A              
     e( 13 - 13) =      5.43036  eV     1   --> A              
     e( 14 - 14) =      7.50975  eV     1   --> A              
     e( 15 - 15) =      8.04668  eV     1   --> A              
     e( 16 - 16) =     13.39082  eV     1   --> A              
     e( 17 - 17) =     13.63731  eV     1   --> A              
     e( 18 - 18) =     15.61270  eV     1   --> A              
     e( 19 - 19) =     16.40468  eV     1   --> A              
     e( 20 - 20) =     18.89502  eV     1   --> A              
     e( 21 - 21) =     19.89842  eV     1   --> A              
     e( 22 - 22) =     21.95077  eV     1   --> A              
     e( 23 - 23) =     23.13082  eV     1   --> A              
     e( 24 - 24) =     24.36489  eV     1   --> A              
     e( 25 - 25) =     25.19121  eV     1   --> A              
     e( 26 - 26) =     25.89749  eV     1   --> A              
     e( 27 - 27) =     25.96906  eV     1   --> A              
     e( 28 - 28) =     26.12487  eV     1   --> A              
     e( 29 - 29) =     27.19463  eV     1   --> A              
     e( 30 - 30) =     28.33413  eV     1   --> A              

 **************************************************************************

 **************************************************************************

                    xk=(   0.37526,   0.20719,   0.61635  )

     Band symmetry, C_1 (1)     point group:

     e(  1 -  1) =    -26.55214  eV     1   --> A              
     e(  2 -  2) =    -26.55039  eV     1   --> A              
     e(  3 -  3) =    -26.53814  eV     1   --> A              
     e(  4 -  4) =    -26.53733  eV     1   --> A              
     e(  5 -  5) =    -26.53152  eV     1   --> A              
     e(  6 -  6) =    -14.49828  eV     1   --> A              
     e(  7 -  7) =    -14.49411  eV     1   --> A              
     e(  8 -  8) =    -14.48688  eV     1   --> A              
     e(  9 -  9) =    -14.48487  eV     1   --> A              
     e( 10 - 10) =    -14.47992  eV     1   --> A              
     e( 11 - 11) =     -0.67504  eV     1   --> A              
     e( 12 - 12) =      2.30382  eV     1   --> A              
     e( 13 - 13) =      5.39290  eV     1   --> A              
     e( 14 - 14) =      7.45464  eV     1   --> A              
     e( 15 - 15) =      7.95647  eV     1   --> A              
     e( 16 - 16) =     13.40690  eV     1   --> A              
     e( 17 - 17) =     13.78196  eV     1   --> A              
     e( 18 - 18) =     15.53763  eV     1   --> A              
     e( 19 - 19) =     16.48453  eV     1   --> A              
     e( 20 - 20) =     19.05287  eV     1   --> A              
     e( 21 - 21) =     20.05853  eV     1   --> A              
     e( 22 - 22) =     22.06684  eV     1   --> A              
     e( 23 - 23) =     22.87782  eV     1   --> A              
     e( 24 - 24) =     24.22174  eV     1   --> A              
     e( 25 - 25) =     25.15312  eV     1   --> A              
     e( 26 - 26) =     25.83604  eV     1   --> A              
     e( 27 - 27) =     25.89627  eV     1   --> A              
     e( 28 - 28) =     26.03517  eV     1   --> A              
     e( 29 - 29) =     27.22870  eV     1   --> A              
     e( 30 - 30) =     28.09425  eV     1   --> A              

 **************************************************************************
 
     BANDS        :      7.89s CPU      9.61s WALL

 
   This run was terminated on:  11:59:25  22Feb2021            

=------------------------------------------------------------------------------=
   JOB DONE.
=------------------------------------------------------------------------------=
