
     Program PWSCF v.6.7MaX starts on 22Feb2021 at  9:44:35 

     This program is part of the open-source Quantum ESPRESSO suite
     for quantum simulation of materials; please cite
         "P. Giannozzi et al., J. Phys.:Condens. Matter 21 395502 (2009);
         "P. Giannozzi et al., J. Phys.:Condens. Matter 29 465901 (2017);
          URL http://www.quantum-espresso.org", 
     in publications or presentations arising from this work. More details at
     http://www.quantum-espresso.org/quote

     Parallel version (MPI), running on    40 processors

     MPI processes distributed on     1 nodes
     R & G space division:  proc/nbgrp/npool/nimage =      40
     Waiting for input...
     Reading input from standard input

     Current dimensions of program PWSCF are:
     Max number of different atomic species (ntypx) = 10
     Max number of k-points (npk) =  40000
     Max angular momentum in pseudopotentials (lmaxx) =  3
     Message from routine read_pp_mesh:
     mesh size missing, using the one in header
     Message from routine read_pp_mesh:
     mesh size missing, using the one in header

     Subspace diagonalization in iterative solution of the eigenvalue problem:
     a serial algorithm will be used

     Message from routine setup:
     no reason to have ecutrho>4*ecutwfc
 
     Parallelization info
     --------------------
     sticks:   dense  smooth     PW     G-vecs:    dense   smooth      PW
     Min          68      22      7                 2345      449      79
     Max          69      23      8                 2350      454      82
     Sum        2759     917    293                93943    18109    3233
 


     bravais-lattice index     =            0
     lattice parameter (alat)  =       8.2584  a.u.
     unit-cell volume          =     378.6051 (a.u.)^3
     number of atoms/cell      =            2
     number of atomic types    =            2
     number of electrons       =        30.00
     number of Kohn-Sham states=           30
     kinetic-energy cutoff     =      50.0000  Ry
     charge density cutoff     =     600.0000  Ry
     scf convergence threshold =      1.0E-09
     mixing beta               =       0.7000
     number of iterations used =            8  plain     mixing
     Exchange-correlation= PBE
                           (   1   4   3   4   0   0   0)

     celldm(1)=   8.258429  celldm(2)=   0.000000  celldm(3)=   0.000000
     celldm(4)=   0.000000  celldm(5)=   0.000000  celldm(6)=   0.000000

     crystal axes: (cart. coord. in units of alat)
               a(1) = (   1.000000  -0.000419  -0.000288 )  
               a(2) = (   0.532565   0.846406  -0.000360 )  
               a(3) = (   0.532567   0.294054   0.793739 )  

     reciprocal axes: (cart. coord. in units 2 pi/alat)
               b(1) = (  0.999611 -0.629148 -0.437620 )  
               b(2) = (  0.000368  1.181048 -0.437786 )  
               b(3) = (  0.000363  0.000308  1.259502 )  


     PseudoPot. # 1 for Ge read from file:
     ../../../pseudo/Ge_ONCV_PBE-1.2.upf
     MD5 check sum: 9f45083245c564cb2163622d60d05ca9
     Pseudo is Norm-conserving, Zval = 14.0
     Generated using ONCVPSP code by D. R. Hamann
     Using radial grid of  602 points,  6 beta functions with: 
                l(1) =   0
                l(2) =   0
                l(3) =   1
                l(4) =   1
                l(5) =   2
                l(6) =   2

     PseudoPot. # 2 for Te read from file:
     ../../../pseudo/Te_ONCV_PBE-1.2.upf
     MD5 check sum: dd4de4dac1e38587f63aaf3700bb29d3
     Pseudo is Norm-conserving, Zval = 16.0
     Generated using ONCVPSP code by D. R. Hamann
     Using radial grid of  602 points,  6 beta functions with: 
                l(1) =   0
                l(2) =   0
                l(3) =   1
                l(4) =   1
                l(5) =   2
                l(6) =   2

     atomic species   valence    mass     pseudopotential
        Ge            14.00    72.63000     Ge( 1.00)
        Te            16.00   127.60000     Te( 1.00)

     No symmetry found



   Cartesian axes

     site n.     atom                  positions (alat units)
         1           Ge  tau(   1) = (   0.0095667   0.0053039   0.0036946  )
         2           Te  tau(   2) = (   0.9796314   0.5407762   0.3761959  )

     number of k points= 23328

     Number of k-points >= 100: set verbosity='high' to print them.

     Dense  grid:    93943 G-vectors     FFT dimensions: (  72,  72,  72)

     Smooth grid:    18109 G-vectors     FFT dimensions: (  40,  40,  40)

     Estimated max dynamical RAM per process >     604.02 MB

     Estimated total dynamical RAM >      23.59 GB

     Initial potential from superposition of free atoms

     starting charge   29.90735, renormalised to   30.00000
     Starting wfcs are random

     total cpu time spent up to now is      185.0 secs

     Self-consistent Calculation

     iteration #  1     ecut=    50.00 Ry     beta= 0.70
     Davidson diagonalization with overlap
     ethr =  1.00E-02,  avg # of iterations =  9.2

     Threshold (ethr) on eigenvalues was too large:
     Diagonalizing with lowered threshold

     Davidson diagonalization with overlap
     c_bands:  1 eigenvalues not converged
     ethr =  4.95E-05,  avg # of iterations =  6.6

     total cpu time spent up to now is     3165.5 secs

     total energy              =    -316.36658583 Ry
     estimated scf accuracy    <       0.01104644 Ry

     iteration #  2     ecut=    50.00 Ry     beta= 0.70
     Davidson diagonalization with overlap
     ethr =  3.68E-05,  avg # of iterations =  2.1

     total cpu time spent up to now is     3779.7 secs

     total energy              =    -316.36819945 Ry
     estimated scf accuracy    <       0.00220102 Ry

     iteration #  3     ecut=    50.00 Ry     beta= 0.70
     Davidson diagonalization with overlap
     ethr =  7.34E-06,  avg # of iterations =  2.5

     total cpu time spent up to now is     4401.0 secs

     total energy              =    -316.36877239 Ry
     estimated scf accuracy    <       0.00048237 Ry

     iteration #  4     ecut=    50.00 Ry     beta= 0.70
     Davidson diagonalization with overlap
     c_bands:  1 eigenvalues not converged
     c_bands:  1 eigenvalues not converged
     ethr =  1.61E-06,  avg # of iterations =  2.5

     total cpu time spent up to now is     5017.0 secs

     total energy              =    -316.36886699 Ry
     estimated scf accuracy    <       0.00001281 Ry

     iteration #  5     ecut=    50.00 Ry     beta= 0.70
     Davidson diagonalization with overlap
     ethr =  4.27E-08,  avg # of iterations =  2.0

     total cpu time spent up to now is     5622.2 secs

     total energy              =    -316.36886912 Ry
     estimated scf accuracy    <       0.00000243 Ry

     iteration #  6     ecut=    50.00 Ry     beta= 0.70
     Davidson diagonalization with overlap
     ethr =  8.10E-09,  avg # of iterations =  2.1

     total cpu time spent up to now is     6230.3 secs

     total energy              =    -316.36886972 Ry
     estimated scf accuracy    <       0.00000006 Ry

     iteration #  7     ecut=    50.00 Ry     beta= 0.70
     Davidson diagonalization with overlap
     ethr =  1.96E-10,  avg # of iterations =  2.2

     total cpu time spent up to now is     6841.5 secs

     total energy              =    -316.36886974 Ry
     estimated scf accuracy    <          2.8E-09 Ry

     iteration #  8     ecut=    50.00 Ry     beta= 0.70
     Davidson diagonalization with overlap
     ethr =  9.36E-12,  avg # of iterations =  2.4

     total cpu time spent up to now is     7494.0 secs

     End of self-consistent calculation

     Number of k-points >= 100: set verbosity='high' to print the bands.

     highest occupied, lowest unoccupied level (ev):    10.2944   10.8609

!    total energy              =    -316.36886974 Ry
     estimated scf accuracy    <          2.9E-10 Ry

     The total energy is the sum of the following terms:
     one-electron contribution =    -137.21408788 Ry
     hartree contribution      =      78.66619244 Ry
     xc contribution           =     -35.86805429 Ry
     ewald contribution        =    -221.95292001 Ry

     convergence has been achieved in   8 iterations

     Writing output data file ./work/GeTe-r.save/
 
     init_run     :    163.17s CPU    184.89s WALL (       1 calls)
     electrons    :   6514.48s CPU   7308.98s WALL (       1 calls)

     Called by init_run:
     wfcinit      :    162.93s CPU    184.59s WALL (       1 calls)
     potinit      :      0.06s CPU      0.07s WALL (       1 calls)
     hinit0       :      0.04s CPU      0.04s WALL (       1 calls)

     Called by electrons:
     c_bands      :   5873.66s CPU   6571.66s WALL (       9 calls)
     sum_band     :    640.70s CPU    737.14s WALL (       9 calls)
     v_of_rho     :      0.10s CPU      0.13s WALL (       9 calls)
     mix_rho      :      0.02s CPU      0.03s WALL (       9 calls)

     Called by c_bands:
     init_us_2    :     41.82s CPU     46.77s WALL (  443232 calls)
     cegterg      :   5717.74s CPU   6396.66s WALL (  209952 calls)

     Called by *egterg:
     cdiaghg      :   1420.72s CPU   1540.87s WALL (  922540 calls)
     h_psi        :   3917.89s CPU   4439.22s WALL (  969196 calls)
     g_psi        :      5.85s CPU      6.36s WALL (  735916 calls)

     Called by h_psi:
     h_psi:calbec :    144.66s CPU    165.38s WALL (  969196 calls)
     vloc_psi     :   3706.20s CPU   4198.13s WALL (  969196 calls)
     add_vuspsi   :     50.65s CPU     57.81s WALL (  969196 calls)

     General routines
     calbec       :    140.93s CPU    161.63s WALL (  969196 calls)
     fft          :      0.06s CPU      0.08s WALL (     106 calls)
     ffts         :      0.00s CPU      0.01s WALL (      18 calls)
     fftw         :   4118.53s CPU   4678.92s WALL (43393936 calls)
     interpolate  :      0.01s CPU      0.01s WALL (       9 calls)
 
     Parallel routines
     fft_scatt_xy :    195.80s CPU    219.71s WALL (43394060 calls)
     fft_scatt_yz :   2567.89s CPU   2933.73s WALL (43394060 calls)
 
     PWSCF        :      1h55m CPU      2h11m WALL

 
   This run was terminated on:  11:56:10  22Feb2021            

=------------------------------------------------------------------------------=
   JOB DONE.
=------------------------------------------------------------------------------=
