
     Program PWSCF v.6.7MaX starts on 12Sep2021 at 23:55:15 

     This program is part of the open-source Quantum ESPRESSO suite
     for quantum simulation of materials; please cite
         "P. Giannozzi et al., J. Phys.:Condens. Matter 21 395502 (2009);
         "P. Giannozzi et al., J. Phys.:Condens. Matter 29 465901 (2017);
          URL http://www.quantum-espresso.org", 
     in publications or presentations arising from this work. More details at
     http://www.quantum-espresso.org/quote

     Parallel version (MPI), running on    20 processors

     MPI processes distributed on     1 nodes
     R & G space division:  proc/nbgrp/npool/nimage =      20
     Waiting for input...
     Reading input from standard input

     Current dimensions of program PWSCF are:
     Max number of different atomic species (ntypx) = 10
     Max number of k-points (npk) =  40000
     Max angular momentum in pseudopotentials (lmaxx) =  3

     Atomic positions and unit cell read from directory:
     ./work/GeTe-mono.save/
     Atomic positions from file used, from input discarded
 
     Message from routine read_pp_mesh:
     mesh size missing, using the one in header
     Message from routine read_pp_mesh:
     mesh size missing, using the one in header

     Subspace diagonalization in iterative solution of the eigenvalue problem:
     a serial algorithm will be used

     Message from routine setup:
     no reason to have ecutrho>4*ecutwfc
 
     Parallelization info
     --------------------
     sticks:   dense  smooth     PW     G-vecs:    dense   smooth      PW
     Min         116      38     12                22746     4364     760
     Max         117      39     13                22761     4379     777
     Sum        2335     769    241               455125    87447   15299
 


     bravais-lattice index     =            0
     lattice parameter (alat)  =       7.4847  a.u.
     unit-cell volume          =    1833.6240 (a.u.)^3
     number of atoms/cell      =            2
     number of atomic types    =            2
     number of electrons       =        30.00
     number of Kohn-Sham states=           24
     kinetic-energy cutoff     =      50.0000  Ry
     charge density cutoff     =     600.0000  Ry
     Exchange-correlation= PBE
                           (   1   4   3   4   0   0   0)

     celldm(1)=   7.484717  celldm(2)=   0.000000  celldm(3)=   0.000000
     celldm(4)=   0.000000  celldm(5)=   0.000000  celldm(6)=   0.000000

     crystal axes: (cart. coord. in units of alat)
               a(1) = (   1.000000   0.000000   0.000000 )  
               a(2) = (   0.500000   0.866025   0.000000 )  
               a(3) = (   0.000000   0.000000   5.049559 )  

     reciprocal axes: (cart. coord. in units 2 pi/alat)
               b(1) = (  1.000000 -0.577350  0.000000 )  
               b(2) = (  0.000000  1.154701  0.000000 )  
               b(3) = (  0.000000  0.000000  0.198037 )  


     PseudoPot. # 1 for Ge read from file:
     ../../pseudo/Ge_ONCV_PBE-1.2.upf
     MD5 check sum: 9f45083245c564cb2163622d60d05ca9
     Pseudo is Norm-conserving, Zval = 14.0
     Generated using ONCVPSP code by D. R. Hamann
     Using radial grid of  602 points,  6 beta functions with: 
                l(1) =   0
                l(2) =   0
                l(3) =   1
                l(4) =   1
                l(5) =   2
                l(6) =   2

     PseudoPot. # 2 for Te read from file:
     ../../pseudo/Te_ONCV_PBE-1.2.upf
     MD5 check sum: dd4de4dac1e38587f63aaf3700bb29d3
     Pseudo is Norm-conserving, Zval = 16.0
     Generated using ONCVPSP code by D. R. Hamann
     Using radial grid of  602 points,  6 beta functions with: 
                l(1) =   0
                l(2) =   0
                l(3) =   1
                l(4) =   1
                l(5) =   2
                l(6) =   2

     atomic species   valence    mass     pseudopotential
        Ge            14.00    72.63000     Ge( 1.00)
        Te            16.00   127.60000     Te( 1.00)

     No symmetry found


                                    s                        frac. trans.

      isym =  1     identity                                     

 cryst.   s( 1) = (     1          0          0      )
                  (     0          1          0      )
                  (     0          0          1      )

 cart.    s( 1) = (  1.0000000  0.0000000  0.0000000 )
                  (  0.0000000  1.0000000  0.0000000 )
                  (  0.0000000  0.0000000  1.0000000 )


   Cartesian axes

     site n.     atom                  positions (alat units)
         1           Ge  tau(   1) = (   0.0000000   0.0000000   0.0000000  )
         2           Te  tau(   2) = (   1.0000000   0.5773503   0.3928870  )

   Crystallographic axes

     site n.     atom                  positions (cryst. coord.)
         1           Ge  tau(   1) = (  0.0000000  0.0000000  0.0000000  )
         2           Te  tau(   2) = (  0.6666667  0.6666667  0.0778062  )

     number of k points=  2304
                       cart. coord. in units 2pi/alat
        k(    1) = (   0.0104167   0.0060141  -0.0990185), wk =   0.0008681
        k(    2) = (   0.0104167   0.0300703  -0.0990185), wk =   0.0008681
        k(    3) = (   0.0104167   0.0541266  -0.0990185), wk =   0.0008681
        k(    4) = (   0.0104167   0.0781828  -0.0990185), wk =   0.0008681
        k(    5) = (   0.0104167   0.1022391  -0.0990185), wk =   0.0008681
        k(    6) = (   0.0104167   0.1262954  -0.0990185), wk =   0.0008681
        k(    7) = (   0.0104167   0.1503516  -0.0990185), wk =   0.0008681
        k(    8) = (   0.0104167   0.1744079  -0.0990185), wk =   0.0008681
        k(    9) = (   0.0104167   0.1984642  -0.0990185), wk =   0.0008681
        k(   10) = (   0.0104167   0.2225204  -0.0990185), wk =   0.0008681
        k(   11) = (   0.0104167   0.2465767  -0.0990185), wk =   0.0008681
        k(   12) = (   0.0104167   0.2706329  -0.0990185), wk =   0.0008681
        k(   13) = (   0.0104167   0.2946892  -0.0990185), wk =   0.0008681
        k(   14) = (   0.0104167   0.3187455  -0.0990185), wk =   0.0008681
        k(   15) = (   0.0104167   0.3428017  -0.0990185), wk =   0.0008681
        k(   16) = (   0.0104167   0.3668580  -0.0990185), wk =   0.0008681
        k(   17) = (   0.0104167   0.3909142  -0.0990185), wk =   0.0008681
        k(   18) = (   0.0104167   0.4149705  -0.0990185), wk =   0.0008681
        k(   19) = (   0.0104167   0.4390268  -0.0990185), wk =   0.0008681
        k(   20) = (   0.0104167   0.4630830  -0.0990185), wk =   0.0008681
        k(   21) = (   0.0104167   0.4871393  -0.0990185), wk =   0.0008681
        k(   22) = (   0.0104167   0.5111956  -0.0990185), wk =   0.0008681
        k(   23) = (   0.0104167   0.5352518  -0.0990185), wk =   0.0008681
        k(   24) = (   0.0104167   0.5593081  -0.0990185), wk =   0.0008681
        k(   25) = (   0.0104167  -0.5713362  -0.0990185), wk =   0.0008681
        k(   26) = (   0.0104167  -0.5472799  -0.0990185), wk =   0.0008681
        k(   27) = (   0.0104167  -0.5232237  -0.0990185), wk =   0.0008681
        k(   28) = (   0.0104167  -0.4991674  -0.0990185), wk =   0.0008681
        k(   29) = (   0.0104167  -0.4751112  -0.0990185), wk =   0.0008681
        k(   30) = (   0.0104167  -0.4510549  -0.0990185), wk =   0.0008681
        k(   31) = (   0.0104167  -0.4269986  -0.0990185), wk =   0.0008681
        k(   32) = (   0.0104167  -0.4029424  -0.0990185), wk =   0.0008681
        k(   33) = (   0.0104167  -0.3788861  -0.0990185), wk =   0.0008681
        k(   34) = (   0.0104167  -0.3548299  -0.0990185), wk =   0.0008681
        k(   35) = (   0.0104167  -0.3307736  -0.0990185), wk =   0.0008681
        k(   36) = (   0.0104167  -0.3067173  -0.0990185), wk =   0.0008681
        k(   37) = (   0.0104167  -0.2826611  -0.0990185), wk =   0.0008681
        k(   38) = (   0.0104167  -0.2586048  -0.0990185), wk =   0.0008681
        k(   39) = (   0.0104167  -0.2345485  -0.0990185), wk =   0.0008681
        k(   40) = (   0.0104167  -0.2104923  -0.0990185), wk =   0.0008681
        k(   41) = (   0.0104167  -0.1864360  -0.0990185), wk =   0.0008681
        k(   42) = (   0.0104167  -0.1623798  -0.0990185), wk =   0.0008681
        k(   43) = (   0.0104167  -0.1383235  -0.0990185), wk =   0.0008681
        k(   44) = (   0.0104167  -0.1142672  -0.0990185), wk =   0.0008681
        k(   45) = (   0.0104167  -0.0902110  -0.0990185), wk =   0.0008681
        k(   46) = (   0.0104167  -0.0661547  -0.0990185), wk =   0.0008681
        k(   47) = (   0.0104167  -0.0420985  -0.0990185), wk =   0.0008681
        k(   48) = (   0.0104167  -0.0180422  -0.0990185), wk =   0.0008681
        k(   49) = (   0.0312500  -0.0060141  -0.0990185), wk =   0.0008681
        k(   50) = (   0.0312500   0.0180422  -0.0990185), wk =   0.0008681
        k(   51) = (   0.0312500   0.0420985  -0.0990185), wk =   0.0008681
        k(   52) = (   0.0312500   0.0661547  -0.0990185), wk =   0.0008681
        k(   53) = (   0.0312500   0.0902110  -0.0990185), wk =   0.0008681
        k(   54) = (   0.0312500   0.1142672  -0.0990185), wk =   0.0008681
        k(   55) = (   0.0312500   0.1383235  -0.0990185), wk =   0.0008681
        k(   56) = (   0.0312500   0.1623798  -0.0990185), wk =   0.0008681
        k(   57) = (   0.0312500   0.1864360  -0.0990185), wk =   0.0008681
        k(   58) = (   0.0312500   0.2104923  -0.0990185), wk =   0.0008681
        k(   59) = (   0.0312500   0.2345485  -0.0990185), wk =   0.0008681
        k(   60) = (   0.0312500   0.2586048  -0.0990185), wk =   0.0008681
        k(   61) = (   0.0312500   0.2826611  -0.0990185), wk =   0.0008681
        k(   62) = (   0.0312500   0.3067173  -0.0990185), wk =   0.0008681
        k(   63) = (   0.0312500   0.3307736  -0.0990185), wk =   0.0008681
        k(   64) = (   0.0312500   0.3548299  -0.0990185), wk =   0.0008681
        k(   65) = (   0.0312500   0.3788861  -0.0990185), wk =   0.0008681
        k(   66) = (   0.0312500   0.4029424  -0.0990185), wk =   0.0008681
        k(   67) = (   0.0312500   0.4269986  -0.0990185), wk =   0.0008681
        k(   68) = (   0.0312500   0.4510549  -0.0990185), wk =   0.0008681
        k(   69) = (   0.0312500   0.4751112  -0.0990185), wk =   0.0008681
        k(   70) = (   0.0312500   0.4991674  -0.0990185), wk =   0.0008681
        k(   71) = (   0.0312500   0.5232237  -0.0990185), wk =   0.0008681
        k(   72) = (   0.0312500   0.5472799  -0.0990185), wk =   0.0008681
        k(   73) = (   0.0312500  -0.5833643  -0.0990185), wk =   0.0008681
        k(   74) = (   0.0312500  -0.5593081  -0.0990185), wk =   0.0008681
        k(   75) = (   0.0312500  -0.5352518  -0.0990185), wk =   0.0008681
        k(   76) = (   0.0312500  -0.5111956  -0.0990185), wk =   0.0008681
        k(   77) = (   0.0312500  -0.4871393  -0.0990185), wk =   0.0008681
        k(   78) = (   0.0312500  -0.4630830  -0.0990185), wk =   0.0008681
        k(   79) = (   0.0312500  -0.4390268  -0.0990185), wk =   0.0008681
        k(   80) = (   0.0312500  -0.4149705  -0.0990185), wk =   0.0008681
        k(   81) = (   0.0312500  -0.3909142  -0.0990185), wk =   0.0008681
        k(   82) = (   0.0312500  -0.3668580  -0.0990185), wk =   0.0008681
        k(   83) = (   0.0312500  -0.3428017  -0.0990185), wk =   0.0008681
        k(   84) = (   0.0312500  -0.3187455  -0.0990185), wk =   0.0008681
        k(   85) = (   0.0312500  -0.2946892  -0.0990185), wk =   0.0008681
        k(   86) = (   0.0312500  -0.2706329  -0.0990185), wk =   0.0008681
        k(   87) = (   0.0312500  -0.2465767  -0.0990185), wk =   0.0008681
        k(   88) = (   0.0312500  -0.2225204  -0.0990185), wk =   0.0008681
        k(   89) = (   0.0312500  -0.1984642  -0.0990185), wk =   0.0008681
        k(   90) = (   0.0312500  -0.1744079  -0.0990185), wk =   0.0008681
        k(   91) = (   0.0312500  -0.1503516  -0.0990185), wk =   0.0008681
        k(   92) = (   0.0312500  -0.1262954  -0.0990185), wk =   0.0008681
        k(   93) = (   0.0312500  -0.1022391  -0.0990185), wk =   0.0008681
        k(   94) = (   0.0312500  -0.0781828  -0.0990185), wk =   0.0008681
        k(   95) = (   0.0312500  -0.0541266  -0.0990185), wk =   0.0008681
        k(   96) = (   0.0312500  -0.0300703  -0.0990185), wk =   0.0008681
        k(   97) = (   0.0520833  -0.0180422  -0.0990185), wk =   0.0008681
        k(   98) = (   0.0520833   0.0060141  -0.0990185), wk =   0.0008681
        k(   99) = (   0.0520833   0.0300703  -0.0990185), wk =   0.0008681
        k(  100) = (   0.0520833   0.0541266  -0.0990185), wk =   0.0008681
        k(  101) = (   0.0520833   0.0781828  -0.0990185), wk =   0.0008681
        k(  102) = (   0.0520833   0.1022391  -0.0990185), wk =   0.0008681
        k(  103) = (   0.0520833   0.1262954  -0.0990185), wk =   0.0008681
        k(  104) = (   0.0520833   0.1503516  -0.0990185), wk =   0.0008681
        k(  105) = (   0.0520833   0.1744079  -0.0990185), wk =   0.0008681
        k(  106) = (   0.0520833   0.1984642  -0.0990185), wk =   0.0008681
        k(  107) = (   0.0520833   0.2225204  -0.0990185), wk =   0.0008681
        k(  108) = (   0.0520833   0.2465767  -0.0990185), wk =   0.0008681
        k(  109) = (   0.0520833   0.2706329  -0.0990185), wk =   0.0008681
        k(  110) = (   0.0520833   0.2946892  -0.0990185), wk =   0.0008681
        k(  111) = (   0.0520833   0.3187455  -0.0990185), wk =   0.0008681
        k(  112) = (   0.0520833   0.3428017  -0.0990185), wk =   0.0008681
        k(  113) = (   0.0520833   0.3668580  -0.0990185), wk =   0.0008681
        k(  114) = (   0.0520833   0.3909142  -0.0990185), wk =   0.0008681
        k(  115) = (   0.0520833   0.4149705  -0.0990185), wk =   0.0008681
        k(  116) = (   0.0520833   0.4390268  -0.0990185), wk =   0.0008681
        k(  117) = (   0.0520833   0.4630830  -0.0990185), wk =   0.0008681
        k(  118) = (   0.0520833   0.4871393  -0.0990185), wk =   0.0008681
        k(  119) = (   0.0520833   0.5111956  -0.0990185), wk =   0.0008681
        k(  120) = (   0.0520833   0.5352518  -0.0990185), wk =   0.0008681
        k(  121) = (   0.0520833  -0.5953925  -0.0990185), wk =   0.0008681
        k(  122) = (   0.0520833  -0.5713362  -0.0990185), wk =   0.0008681
        k(  123) = (   0.0520833  -0.5472799  -0.0990185), wk =   0.0008681
        k(  124) = (   0.0520833  -0.5232237  -0.0990185), wk =   0.0008681
        k(  125) = (   0.0520833  -0.4991674  -0.0990185), wk =   0.0008681
        k(  126) = (   0.0520833  -0.4751112  -0.0990185), wk =   0.0008681
        k(  127) = (   0.0520833  -0.4510549  -0.0990185), wk =   0.0008681
        k(  128) = (   0.0520833  -0.4269986  -0.0990185), wk =   0.0008681
        k(  129) = (   0.0520833  -0.4029424  -0.0990185), wk =   0.0008681
        k(  130) = (   0.0520833  -0.3788861  -0.0990185), wk =   0.0008681
        k(  131) = (   0.0520833  -0.3548299  -0.0990185), wk =   0.0008681
        k(  132) = (   0.0520833  -0.3307736  -0.0990185), wk =   0.0008681
        k(  133) = (   0.0520833  -0.3067173  -0.0990185), wk =   0.0008681
        k(  134) = (   0.0520833  -0.2826611  -0.0990185), wk =   0.0008681
        k(  135) = (   0.0520833  -0.2586048  -0.0990185), wk =   0.0008681
        k(  136) = (   0.0520833  -0.2345485  -0.0990185), wk =   0.0008681
        k(  137) = (   0.0520833  -0.2104923  -0.0990185), wk =   0.0008681
        k(  138) = (   0.0520833  -0.1864360  -0.0990185), wk =   0.0008681
        k(  139) = (   0.0520833  -0.1623798  -0.0990185), wk =   0.0008681
        k(  140) = (   0.0520833  -0.1383235  -0.0990185), wk =   0.0008681
        k(  141) = (   0.0520833  -0.1142672  -0.0990185), wk =   0.0008681
        k(  142) = (   0.0520833  -0.0902110  -0.0990185), wk =   0.0008681
        k(  143) = (   0.0520833  -0.0661547  -0.0990185), wk =   0.0008681
        k(  144) = (   0.0520833  -0.0420985  -0.0990185), wk =   0.0008681
        k(  145) = (   0.0729167  -0.0300703  -0.0990185), wk =   0.0008681
        k(  146) = (   0.0729167  -0.0060141  -0.0990185), wk =   0.0008681
        k(  147) = (   0.0729167   0.0180422  -0.0990185), wk =   0.0008681
        k(  148) = (   0.0729167   0.0420985  -0.0990185), wk =   0.0008681
        k(  149) = (   0.0729167   0.0661547  -0.0990185), wk =   0.0008681
        k(  150) = (   0.0729167   0.0902110  -0.0990185), wk =   0.0008681
        k(  151) = (   0.0729167   0.1142672  -0.0990185), wk =   0.0008681
        k(  152) = (   0.0729167   0.1383235  -0.0990185), wk =   0.0008681
        k(  153) = (   0.0729167   0.1623798  -0.0990185), wk =   0.0008681
        k(  154) = (   0.0729167   0.1864360  -0.0990185), wk =   0.0008681
        k(  155) = (   0.0729167   0.2104923  -0.0990185), wk =   0.0008681
        k(  156) = (   0.0729167   0.2345485  -0.0990185), wk =   0.0008681
        k(  157) = (   0.0729167   0.2586048  -0.0990185), wk =   0.0008681
        k(  158) = (   0.0729167   0.2826611  -0.0990185), wk =   0.0008681
        k(  159) = (   0.0729167   0.3067173  -0.0990185), wk =   0.0008681
        k(  160) = (   0.0729167   0.3307736  -0.0990185), wk =   0.0008681
        k(  161) = (   0.0729167   0.3548299  -0.0990185), wk =   0.0008681
        k(  162) = (   0.0729167   0.3788861  -0.0990185), wk =   0.0008681
        k(  163) = (   0.0729167   0.4029424  -0.0990185), wk =   0.0008681
        k(  164) = (   0.0729167   0.4269986  -0.0990185), wk =   0.0008681
        k(  165) = (   0.0729167   0.4510549  -0.0990185), wk =   0.0008681
        k(  166) = (   0.0729167   0.4751112  -0.0990185), wk =   0.0008681
        k(  167) = (   0.0729167   0.4991674  -0.0990185), wk =   0.0008681
        k(  168) = (   0.0729167   0.5232237  -0.0990185), wk =   0.0008681
        k(  169) = (   0.0729167  -0.6074206  -0.0990185), wk =   0.0008681
        k(  170) = (   0.0729167  -0.5833643  -0.0990185), wk =   0.0008681
        k(  171) = (   0.0729167  -0.5593081  -0.0990185), wk =   0.0008681
        k(  172) = (   0.0729167  -0.5352518  -0.0990185), wk =   0.0008681
        k(  173) = (   0.0729167  -0.5111956  -0.0990185), wk =   0.0008681
        k(  174) = (   0.0729167  -0.4871393  -0.0990185), wk =   0.0008681
        k(  175) = (   0.0729167  -0.4630830  -0.0990185), wk =   0.0008681
        k(  176) = (   0.0729167  -0.4390268  -0.0990185), wk =   0.0008681
        k(  177) = (   0.0729167  -0.4149705  -0.0990185), wk =   0.0008681
        k(  178) = (   0.0729167  -0.3909142  -0.0990185), wk =   0.0008681
        k(  179) = (   0.0729167  -0.3668580  -0.0990185), wk =   0.0008681
        k(  180) = (   0.0729167  -0.3428017  -0.0990185), wk =   0.0008681
        k(  181) = (   0.0729167  -0.3187455  -0.0990185), wk =   0.0008681
        k(  182) = (   0.0729167  -0.2946892  -0.0990185), wk =   0.0008681
        k(  183) = (   0.0729167  -0.2706329  -0.0990185), wk =   0.0008681
        k(  184) = (   0.0729167  -0.2465767  -0.0990185), wk =   0.0008681
        k(  185) = (   0.0729167  -0.2225204  -0.0990185), wk =   0.0008681
        k(  186) = (   0.0729167  -0.1984642  -0.0990185), wk =   0.0008681
        k(  187) = (   0.0729167  -0.1744079  -0.0990185), wk =   0.0008681
        k(  188) = (   0.0729167  -0.1503516  -0.0990185), wk =   0.0008681
        k(  189) = (   0.0729167  -0.1262954  -0.0990185), wk =   0.0008681
        k(  190) = (   0.0729167  -0.1022391  -0.0990185), wk =   0.0008681
        k(  191) = (   0.0729167  -0.0781828  -0.0990185), wk =   0.0008681
        k(  192) = (   0.0729167  -0.0541266  -0.0990185), wk =   0.0008681
        k(  193) = (   0.0937500  -0.0420985  -0.0990185), wk =   0.0008681
        k(  194) = (   0.0937500  -0.0180422  -0.0990185), wk =   0.0008681
        k(  195) = (   0.0937500   0.0060141  -0.0990185), wk =   0.0008681
        k(  196) = (   0.0937500   0.0300703  -0.0990185), wk =   0.0008681
        k(  197) = (   0.0937500   0.0541266  -0.0990185), wk =   0.0008681
        k(  198) = (   0.0937500   0.0781828  -0.0990185), wk =   0.0008681
        k(  199) = (   0.0937500   0.1022391  -0.0990185), wk =   0.0008681
        k(  200) = (   0.0937500   0.1262954  -0.0990185), wk =   0.0008681
        k(  201) = (   0.0937500   0.1503516  -0.0990185), wk =   0.0008681
        k(  202) = (   0.0937500   0.1744079  -0.0990185), wk =   0.0008681
        k(  203) = (   0.0937500   0.1984642  -0.0990185), wk =   0.0008681
        k(  204) = (   0.0937500   0.2225204  -0.0990185), wk =   0.0008681
        k(  205) = (   0.0937500   0.2465767  -0.0990185), wk =   0.0008681
        k(  206) = (   0.0937500   0.2706329  -0.0990185), wk =   0.0008681
        k(  207) = (   0.0937500   0.2946892  -0.0990185), wk =   0.0008681
        k(  208) = (   0.0937500   0.3187455  -0.0990185), wk =   0.0008681
        k(  209) = (   0.0937500   0.3428017  -0.0990185), wk =   0.0008681
        k(  210) = (   0.0937500   0.3668580  -0.0990185), wk =   0.0008681
        k(  211) = (   0.0937500   0.3909142  -0.0990185), wk =   0.0008681
        k(  212) = (   0.0937500   0.4149705  -0.0990185), wk =   0.0008681
        k(  213) = (   0.0937500   0.4390268  -0.0990185), wk =   0.0008681
        k(  214) = (   0.0937500   0.4630830  -0.0990185), wk =   0.0008681
        k(  215) = (   0.0937500   0.4871393  -0.0990185), wk =   0.0008681
        k(  216) = (   0.0937500   0.5111956  -0.0990185), wk =   0.0008681
        k(  217) = (   0.0937500  -0.6194487  -0.0990185), wk =   0.0008681
        k(  218) = (   0.0937500  -0.5953925  -0.0990185), wk =   0.0008681
        k(  219) = (   0.0937500  -0.5713362  -0.0990185), wk =   0.0008681
        k(  220) = (   0.0937500  -0.5472799  -0.0990185), wk =   0.0008681
        k(  221) = (   0.0937500  -0.5232237  -0.0990185), wk =   0.0008681
        k(  222) = (   0.0937500  -0.4991674  -0.0990185), wk =   0.0008681
        k(  223) = (   0.0937500  -0.4751112  -0.0990185), wk =   0.0008681
        k(  224) = (   0.0937500  -0.4510549  -0.0990185), wk =   0.0008681
        k(  225) = (   0.0937500  -0.4269986  -0.0990185), wk =   0.0008681
        k(  226) = (   0.0937500  -0.4029424  -0.0990185), wk =   0.0008681
        k(  227) = (   0.0937500  -0.3788861  -0.0990185), wk =   0.0008681
        k(  228) = (   0.0937500  -0.3548299  -0.0990185), wk =   0.0008681
        k(  229) = (   0.0937500  -0.3307736  -0.0990185), wk =   0.0008681
        k(  230) = (   0.0937500  -0.3067173  -0.0990185), wk =   0.0008681
        k(  231) = (   0.0937500  -0.2826611  -0.0990185), wk =   0.0008681
        k(  232) = (   0.0937500  -0.2586048  -0.0990185), wk =   0.0008681
        k(  233) = (   0.0937500  -0.2345485  -0.0990185), wk =   0.0008681
        k(  234) = (   0.0937500  -0.2104923  -0.0990185), wk =   0.0008681
        k(  235) = (   0.0937500  -0.1864360  -0.0990185), wk =   0.0008681
        k(  236) = (   0.0937500  -0.1623798  -0.0990185), wk =   0.0008681
        k(  237) = (   0.0937500  -0.1383235  -0.0990185), wk =   0.0008681
        k(  238) = (   0.0937500  -0.1142672  -0.0990185), wk =   0.0008681
        k(  239) = (   0.0937500  -0.0902110  -0.0990185), wk =   0.0008681
        k(  240) = (   0.0937500  -0.0661547  -0.0990185), wk =   0.0008681
        k(  241) = (   0.1145833  -0.0541266  -0.0990185), wk =   0.0008681
        k(  242) = (   0.1145833  -0.0300703  -0.0990185), wk =   0.0008681
        k(  243) = (   0.1145833  -0.0060141  -0.0990185), wk =   0.0008681
        k(  244) = (   0.1145833   0.0180422  -0.0990185), wk =   0.0008681
        k(  245) = (   0.1145833   0.0420985  -0.0990185), wk =   0.0008681
        k(  246) = (   0.1145833   0.0661547  -0.0990185), wk =   0.0008681
        k(  247) = (   0.1145833   0.0902110  -0.0990185), wk =   0.0008681
        k(  248) = (   0.1145833   0.1142672  -0.0990185), wk =   0.0008681
        k(  249) = (   0.1145833   0.1383235  -0.0990185), wk =   0.0008681
        k(  250) = (   0.1145833   0.1623798  -0.0990185), wk =   0.0008681
        k(  251) = (   0.1145833   0.1864360  -0.0990185), wk =   0.0008681
        k(  252) = (   0.1145833   0.2104923  -0.0990185), wk =   0.0008681
        k(  253) = (   0.1145833   0.2345485  -0.0990185), wk =   0.0008681
        k(  254) = (   0.1145833   0.2586048  -0.0990185), wk =   0.0008681
        k(  255) = (   0.1145833   0.2826611  -0.0990185), wk =   0.0008681
        k(  256) = (   0.1145833   0.3067173  -0.0990185), wk =   0.0008681
        k(  257) = (   0.1145833   0.3307736  -0.0990185), wk =   0.0008681
        k(  258) = (   0.1145833   0.3548299  -0.0990185), wk =   0.0008681
        k(  259) = (   0.1145833   0.3788861  -0.0990185), wk =   0.0008681
        k(  260) = (   0.1145833   0.4029424  -0.0990185), wk =   0.0008681
        k(  261) = (   0.1145833   0.4269986  -0.0990185), wk =   0.0008681
        k(  262) = (   0.1145833   0.4510549  -0.0990185), wk =   0.0008681
        k(  263) = (   0.1145833   0.4751112  -0.0990185), wk =   0.0008681
        k(  264) = (   0.1145833   0.4991674  -0.0990185), wk =   0.0008681
        k(  265) = (   0.1145833  -0.6314769  -0.0990185), wk =   0.0008681
        k(  266) = (   0.1145833  -0.6074206  -0.0990185), wk =   0.0008681
        k(  267) = (   0.1145833  -0.5833643  -0.0990185), wk =   0.0008681
        k(  268) = (   0.1145833  -0.5593081  -0.0990185), wk =   0.0008681
        k(  269) = (   0.1145833  -0.5352518  -0.0990185), wk =   0.0008681
        k(  270) = (   0.1145833  -0.5111956  -0.0990185), wk =   0.0008681
        k(  271) = (   0.1145833  -0.4871393  -0.0990185), wk =   0.0008681
        k(  272) = (   0.1145833  -0.4630830  -0.0990185), wk =   0.0008681
        k(  273) = (   0.1145833  -0.4390268  -0.0990185), wk =   0.0008681
        k(  274) = (   0.1145833  -0.4149705  -0.0990185), wk =   0.0008681
        k(  275) = (   0.1145833  -0.3909142  -0.0990185), wk =   0.0008681
        k(  276) = (   0.1145833  -0.3668580  -0.0990185), wk =   0.0008681
        k(  277) = (   0.1145833  -0.3428017  -0.0990185), wk =   0.0008681
        k(  278) = (   0.1145833  -0.3187455  -0.0990185), wk =   0.0008681
        k(  279) = (   0.1145833  -0.2946892  -0.0990185), wk =   0.0008681
        k(  280) = (   0.1145833  -0.2706329  -0.0990185), wk =   0.0008681
        k(  281) = (   0.1145833  -0.2465767  -0.0990185), wk =   0.0008681
        k(  282) = (   0.1145833  -0.2225204  -0.0990185), wk =   0.0008681
        k(  283) = (   0.1145833  -0.1984642  -0.0990185), wk =   0.0008681
        k(  284) = (   0.1145833  -0.1744079  -0.0990185), wk =   0.0008681
        k(  285) = (   0.1145833  -0.1503516  -0.0990185), wk =   0.0008681
        k(  286) = (   0.1145833  -0.1262954  -0.0990185), wk =   0.0008681
        k(  287) = (   0.1145833  -0.1022391  -0.0990185), wk =   0.0008681
        k(  288) = (   0.1145833  -0.0781828  -0.0990185), wk =   0.0008681
        k(  289) = (   0.1354167  -0.0661547  -0.0990185), wk =   0.0008681
        k(  290) = (   0.1354167  -0.0420985  -0.0990185), wk =   0.0008681
        k(  291) = (   0.1354167  -0.0180422  -0.0990185), wk =   0.0008681
        k(  292) = (   0.1354167   0.0060141  -0.0990185), wk =   0.0008681
        k(  293) = (   0.1354167   0.0300703  -0.0990185), wk =   0.0008681
        k(  294) = (   0.1354167   0.0541266  -0.0990185), wk =   0.0008681
        k(  295) = (   0.1354167   0.0781828  -0.0990185), wk =   0.0008681
        k(  296) = (   0.1354167   0.1022391  -0.0990185), wk =   0.0008681
        k(  297) = (   0.1354167   0.1262954  -0.0990185), wk =   0.0008681
        k(  298) = (   0.1354167   0.1503516  -0.0990185), wk =   0.0008681
        k(  299) = (   0.1354167   0.1744079  -0.0990185), wk =   0.0008681
        k(  300) = (   0.1354167   0.1984642  -0.0990185), wk =   0.0008681
        k(  301) = (   0.1354167   0.2225204  -0.0990185), wk =   0.0008681
        k(  302) = (   0.1354167   0.2465767  -0.0990185), wk =   0.0008681
        k(  303) = (   0.1354167   0.2706329  -0.0990185), wk =   0.0008681
        k(  304) = (   0.1354167   0.2946892  -0.0990185), wk =   0.0008681
        k(  305) = (   0.1354167   0.3187455  -0.0990185), wk =   0.0008681
        k(  306) = (   0.1354167   0.3428017  -0.0990185), wk =   0.0008681
        k(  307) = (   0.1354167   0.3668580  -0.0990185), wk =   0.0008681
        k(  308) = (   0.1354167   0.3909142  -0.0990185), wk =   0.0008681
        k(  309) = (   0.1354167   0.4149705  -0.0990185), wk =   0.0008681
        k(  310) = (   0.1354167   0.4390268  -0.0990185), wk =   0.0008681
        k(  311) = (   0.1354167   0.4630830  -0.0990185), wk =   0.0008681
        k(  312) = (   0.1354167   0.4871393  -0.0990185), wk =   0.0008681
        k(  313) = (   0.1354167  -0.6435050  -0.0990185), wk =   0.0008681
        k(  314) = (   0.1354167  -0.6194487  -0.0990185), wk =   0.0008681
        k(  315) = (   0.1354167  -0.5953925  -0.0990185), wk =   0.0008681
        k(  316) = (   0.1354167  -0.5713362  -0.0990185), wk =   0.0008681
        k(  317) = (   0.1354167  -0.5472799  -0.0990185), wk =   0.0008681
        k(  318) = (   0.1354167  -0.5232237  -0.0990185), wk =   0.0008681
        k(  319) = (   0.1354167  -0.4991674  -0.0990185), wk =   0.0008681
        k(  320) = (   0.1354167  -0.4751112  -0.0990185), wk =   0.0008681
        k(  321) = (   0.1354167  -0.4510549  -0.0990185), wk =   0.0008681
        k(  322) = (   0.1354167  -0.4269986  -0.0990185), wk =   0.0008681
        k(  323) = (   0.1354167  -0.4029424  -0.0990185), wk =   0.0008681
        k(  324) = (   0.1354167  -0.3788861  -0.0990185), wk =   0.0008681
        k(  325) = (   0.1354167  -0.3548299  -0.0990185), wk =   0.0008681
        k(  326) = (   0.1354167  -0.3307736  -0.0990185), wk =   0.0008681
        k(  327) = (   0.1354167  -0.3067173  -0.0990185), wk =   0.0008681
        k(  328) = (   0.1354167  -0.2826611  -0.0990185), wk =   0.0008681
        k(  329) = (   0.1354167  -0.2586048  -0.0990185), wk =   0.0008681
        k(  330) = (   0.1354167  -0.2345485  -0.0990185), wk =   0.0008681
        k(  331) = (   0.1354167  -0.2104923  -0.0990185), wk =   0.0008681
        k(  332) = (   0.1354167  -0.1864360  -0.0990185), wk =   0.0008681
        k(  333) = (   0.1354167  -0.1623798  -0.0990185), wk =   0.0008681
        k(  334) = (   0.1354167  -0.1383235  -0.0990185), wk =   0.0008681
        k(  335) = (   0.1354167  -0.1142672  -0.0990185), wk =   0.0008681
        k(  336) = (   0.1354167  -0.0902110  -0.0990185), wk =   0.0008681
        k(  337) = (   0.1562500  -0.0781828  -0.0990185), wk =   0.0008681
        k(  338) = (   0.1562500  -0.0541266  -0.0990185), wk =   0.0008681
        k(  339) = (   0.1562500  -0.0300703  -0.0990185), wk =   0.0008681
        k(  340) = (   0.1562500  -0.0060141  -0.0990185), wk =   0.0008681
        k(  341) = (   0.1562500   0.0180422  -0.0990185), wk =   0.0008681
        k(  342) = (   0.1562500   0.0420985  -0.0990185), wk =   0.0008681
        k(  343) = (   0.1562500   0.0661547  -0.0990185), wk =   0.0008681
        k(  344) = (   0.1562500   0.0902110  -0.0990185), wk =   0.0008681
        k(  345) = (   0.1562500   0.1142672  -0.0990185), wk =   0.0008681
        k(  346) = (   0.1562500   0.1383235  -0.0990185), wk =   0.0008681
        k(  347) = (   0.1562500   0.1623798  -0.0990185), wk =   0.0008681
        k(  348) = (   0.1562500   0.1864360  -0.0990185), wk =   0.0008681
        k(  349) = (   0.1562500   0.2104923  -0.0990185), wk =   0.0008681
        k(  350) = (   0.1562500   0.2345485  -0.0990185), wk =   0.0008681
        k(  351) = (   0.1562500   0.2586048  -0.0990185), wk =   0.0008681
        k(  352) = (   0.1562500   0.2826611  -0.0990185), wk =   0.0008681
        k(  353) = (   0.1562500   0.3067173  -0.0990185), wk =   0.0008681
        k(  354) = (   0.1562500   0.3307736  -0.0990185), wk =   0.0008681
        k(  355) = (   0.1562500   0.3548299  -0.0990185), wk =   0.0008681
        k(  356) = (   0.1562500   0.3788861  -0.0990185), wk =   0.0008681
        k(  357) = (   0.1562500   0.4029424  -0.0990185), wk =   0.0008681
        k(  358) = (   0.1562500   0.4269986  -0.0990185), wk =   0.0008681
        k(  359) = (   0.1562500   0.4510549  -0.0990185), wk =   0.0008681
        k(  360) = (   0.1562500   0.4751112  -0.0990185), wk =   0.0008681
        k(  361) = (   0.1562500  -0.6555331  -0.0990185), wk =   0.0008681
        k(  362) = (   0.1562500  -0.6314769  -0.0990185), wk =   0.0008681
        k(  363) = (   0.1562500  -0.6074206  -0.0990185), wk =   0.0008681
        k(  364) = (   0.1562500  -0.5833643  -0.0990185), wk =   0.0008681
        k(  365) = (   0.1562500  -0.5593081  -0.0990185), wk =   0.0008681
        k(  366) = (   0.1562500  -0.5352518  -0.0990185), wk =   0.0008681
        k(  367) = (   0.1562500  -0.5111956  -0.0990185), wk =   0.0008681
        k(  368) = (   0.1562500  -0.4871393  -0.0990185), wk =   0.0008681
        k(  369) = (   0.1562500  -0.4630830  -0.0990185), wk =   0.0008681
        k(  370) = (   0.1562500  -0.4390268  -0.0990185), wk =   0.0008681
        k(  371) = (   0.1562500  -0.4149705  -0.0990185), wk =   0.0008681
        k(  372) = (   0.1562500  -0.3909142  -0.0990185), wk =   0.0008681
        k(  373) = (   0.1562500  -0.3668580  -0.0990185), wk =   0.0008681
        k(  374) = (   0.1562500  -0.3428017  -0.0990185), wk =   0.0008681
        k(  375) = (   0.1562500  -0.3187455  -0.0990185), wk =   0.0008681
        k(  376) = (   0.1562500  -0.2946892  -0.0990185), wk =   0.0008681
        k(  377) = (   0.1562500  -0.2706329  -0.0990185), wk =   0.0008681
        k(  378) = (   0.1562500  -0.2465767  -0.0990185), wk =   0.0008681
        k(  379) = (   0.1562500  -0.2225204  -0.0990185), wk =   0.0008681
        k(  380) = (   0.1562500  -0.1984642  -0.0990185), wk =   0.0008681
        k(  381) = (   0.1562500  -0.1744079  -0.0990185), wk =   0.0008681
        k(  382) = (   0.1562500  -0.1503516  -0.0990185), wk =   0.0008681
        k(  383) = (   0.1562500  -0.1262954  -0.0990185), wk =   0.0008681
        k(  384) = (   0.1562500  -0.1022391  -0.0990185), wk =   0.0008681
        k(  385) = (   0.1770833  -0.0902110  -0.0990185), wk =   0.0008681
        k(  386) = (   0.1770833  -0.0661547  -0.0990185), wk =   0.0008681
        k(  387) = (   0.1770833  -0.0420985  -0.0990185), wk =   0.0008681
        k(  388) = (   0.1770833  -0.0180422  -0.0990185), wk =   0.0008681
        k(  389) = (   0.1770833   0.0060141  -0.0990185), wk =   0.0008681
        k(  390) = (   0.1770833   0.0300703  -0.0990185), wk =   0.0008681
        k(  391) = (   0.1770833   0.0541266  -0.0990185), wk =   0.0008681
        k(  392) = (   0.1770833   0.0781828  -0.0990185), wk =   0.0008681
        k(  393) = (   0.1770833   0.1022391  -0.0990185), wk =   0.0008681
        k(  394) = (   0.1770833   0.1262954  -0.0990185), wk =   0.0008681
        k(  395) = (   0.1770833   0.1503516  -0.0990185), wk =   0.0008681
        k(  396) = (   0.1770833   0.1744079  -0.0990185), wk =   0.0008681
        k(  397) = (   0.1770833   0.1984642  -0.0990185), wk =   0.0008681
        k(  398) = (   0.1770833   0.2225204  -0.0990185), wk =   0.0008681
        k(  399) = (   0.1770833   0.2465767  -0.0990185), wk =   0.0008681
        k(  400) = (   0.1770833   0.2706329  -0.0990185), wk =   0.0008681
        k(  401) = (   0.1770833   0.2946892  -0.0990185), wk =   0.0008681
        k(  402) = (   0.1770833   0.3187455  -0.0990185), wk =   0.0008681
        k(  403) = (   0.1770833   0.3428017  -0.0990185), wk =   0.0008681
        k(  404) = (   0.1770833   0.3668580  -0.0990185), wk =   0.0008681
        k(  405) = (   0.1770833   0.3909142  -0.0990185), wk =   0.0008681
        k(  406) = (   0.1770833   0.4149705  -0.0990185), wk =   0.0008681
        k(  407) = (   0.1770833   0.4390268  -0.0990185), wk =   0.0008681
        k(  408) = (   0.1770833   0.4630830  -0.0990185), wk =   0.0008681
        k(  409) = (   0.1770833  -0.6675612  -0.0990185), wk =   0.0008681
        k(  410) = (   0.1770833  -0.6435050  -0.0990185), wk =   0.0008681
        k(  411) = (   0.1770833  -0.6194487  -0.0990185), wk =   0.0008681
        k(  412) = (   0.1770833  -0.5953925  -0.0990185), wk =   0.0008681
        k(  413) = (   0.1770833  -0.5713362  -0.0990185), wk =   0.0008681
        k(  414) = (   0.1770833  -0.5472799  -0.0990185), wk =   0.0008681
        k(  415) = (   0.1770833  -0.5232237  -0.0990185), wk =   0.0008681
        k(  416) = (   0.1770833  -0.4991674  -0.0990185), wk =   0.0008681
        k(  417) = (   0.1770833  -0.4751112  -0.0990185), wk =   0.0008681
        k(  418) = (   0.1770833  -0.4510549  -0.0990185), wk =   0.0008681
        k(  419) = (   0.1770833  -0.4269986  -0.0990185), wk =   0.0008681
        k(  420) = (   0.1770833  -0.4029424  -0.0990185), wk =   0.0008681
        k(  421) = (   0.1770833  -0.3788861  -0.0990185), wk =   0.0008681
        k(  422) = (   0.1770833  -0.3548299  -0.0990185), wk =   0.0008681
        k(  423) = (   0.1770833  -0.3307736  -0.0990185), wk =   0.0008681
        k(  424) = (   0.1770833  -0.3067173  -0.0990185), wk =   0.0008681
        k(  425) = (   0.1770833  -0.2826611  -0.0990185), wk =   0.0008681
        k(  426) = (   0.1770833  -0.2586048  -0.0990185), wk =   0.0008681
        k(  427) = (   0.1770833  -0.2345485  -0.0990185), wk =   0.0008681
        k(  428) = (   0.1770833  -0.2104923  -0.0990185), wk =   0.0008681
        k(  429) = (   0.1770833  -0.1864360  -0.0990185), wk =   0.0008681
        k(  430) = (   0.1770833  -0.1623798  -0.0990185), wk =   0.0008681
        k(  431) = (   0.1770833  -0.1383235  -0.0990185), wk =   0.0008681
        k(  432) = (   0.1770833  -0.1142672  -0.0990185), wk =   0.0008681
        k(  433) = (   0.1979167  -0.1022391  -0.0990185), wk =   0.0008681
        k(  434) = (   0.1979167  -0.0781828  -0.0990185), wk =   0.0008681
        k(  435) = (   0.1979167  -0.0541266  -0.0990185), wk =   0.0008681
        k(  436) = (   0.1979167  -0.0300703  -0.0990185), wk =   0.0008681
        k(  437) = (   0.1979167  -0.0060141  -0.0990185), wk =   0.0008681
        k(  438) = (   0.1979167   0.0180422  -0.0990185), wk =   0.0008681
        k(  439) = (   0.1979167   0.0420985  -0.0990185), wk =   0.0008681
        k(  440) = (   0.1979167   0.0661547  -0.0990185), wk =   0.0008681
        k(  441) = (   0.1979167   0.0902110  -0.0990185), wk =   0.0008681
        k(  442) = (   0.1979167   0.1142672  -0.0990185), wk =   0.0008681
        k(  443) = (   0.1979167   0.1383235  -0.0990185), wk =   0.0008681
        k(  444) = (   0.1979167   0.1623798  -0.0990185), wk =   0.0008681
        k(  445) = (   0.1979167   0.1864360  -0.0990185), wk =   0.0008681
        k(  446) = (   0.1979167   0.2104923  -0.0990185), wk =   0.0008681
        k(  447) = (   0.1979167   0.2345485  -0.0990185), wk =   0.0008681
        k(  448) = (   0.1979167   0.2586048  -0.0990185), wk =   0.0008681
        k(  449) = (   0.1979167   0.2826611  -0.0990185), wk =   0.0008681
        k(  450) = (   0.1979167   0.3067173  -0.0990185), wk =   0.0008681
        k(  451) = (   0.1979167   0.3307736  -0.0990185), wk =   0.0008681
        k(  452) = (   0.1979167   0.3548299  -0.0990185), wk =   0.0008681
        k(  453) = (   0.1979167   0.3788861  -0.0990185), wk =   0.0008681
        k(  454) = (   0.1979167   0.4029424  -0.0990185), wk =   0.0008681
        k(  455) = (   0.1979167   0.4269986  -0.0990185), wk =   0.0008681
        k(  456) = (   0.1979167   0.4510549  -0.0990185), wk =   0.0008681
        k(  457) = (   0.1979167  -0.6795894  -0.0990185), wk =   0.0008681
        k(  458) = (   0.1979167  -0.6555331  -0.0990185), wk =   0.0008681
        k(  459) = (   0.1979167  -0.6314769  -0.0990185), wk =   0.0008681
        k(  460) = (   0.1979167  -0.6074206  -0.0990185), wk =   0.0008681
        k(  461) = (   0.1979167  -0.5833643  -0.0990185), wk =   0.0008681
        k(  462) = (   0.1979167  -0.5593081  -0.0990185), wk =   0.0008681
        k(  463) = (   0.1979167  -0.5352518  -0.0990185), wk =   0.0008681
        k(  464) = (   0.1979167  -0.5111956  -0.0990185), wk =   0.0008681
        k(  465) = (   0.1979167  -0.4871393  -0.0990185), wk =   0.0008681
        k(  466) = (   0.1979167  -0.4630830  -0.0990185), wk =   0.0008681
        k(  467) = (   0.1979167  -0.4390268  -0.0990185), wk =   0.0008681
        k(  468) = (   0.1979167  -0.4149705  -0.0990185), wk =   0.0008681
        k(  469) = (   0.1979167  -0.3909142  -0.0990185), wk =   0.0008681
        k(  470) = (   0.1979167  -0.3668580  -0.0990185), wk =   0.0008681
        k(  471) = (   0.1979167  -0.3428017  -0.0990185), wk =   0.0008681
        k(  472) = (   0.1979167  -0.3187455  -0.0990185), wk =   0.0008681
        k(  473) = (   0.1979167  -0.2946892  -0.0990185), wk =   0.0008681
        k(  474) = (   0.1979167  -0.2706329  -0.0990185), wk =   0.0008681
        k(  475) = (   0.1979167  -0.2465767  -0.0990185), wk =   0.0008681
        k(  476) = (   0.1979167  -0.2225204  -0.0990185), wk =   0.0008681
        k(  477) = (   0.1979167  -0.1984642  -0.0990185), wk =   0.0008681
        k(  478) = (   0.1979167  -0.1744079  -0.0990185), wk =   0.0008681
        k(  479) = (   0.1979167  -0.1503516  -0.0990185), wk =   0.0008681
        k(  480) = (   0.1979167  -0.1262954  -0.0990185), wk =   0.0008681
        k(  481) = (   0.2187500  -0.1142672  -0.0990185), wk =   0.0008681
        k(  482) = (   0.2187500  -0.0902110  -0.0990185), wk =   0.0008681
        k(  483) = (   0.2187500  -0.0661547  -0.0990185), wk =   0.0008681
        k(  484) = (   0.2187500  -0.0420985  -0.0990185), wk =   0.0008681
        k(  485) = (   0.2187500  -0.0180422  -0.0990185), wk =   0.0008681
        k(  486) = (   0.2187500   0.0060141  -0.0990185), wk =   0.0008681
        k(  487) = (   0.2187500   0.0300703  -0.0990185), wk =   0.0008681
        k(  488) = (   0.2187500   0.0541266  -0.0990185), wk =   0.0008681
        k(  489) = (   0.2187500   0.0781828  -0.0990185), wk =   0.0008681
        k(  490) = (   0.2187500   0.1022391  -0.0990185), wk =   0.0008681
        k(  491) = (   0.2187500   0.1262954  -0.0990185), wk =   0.0008681
        k(  492) = (   0.2187500   0.1503516  -0.0990185), wk =   0.0008681
        k(  493) = (   0.2187500   0.1744079  -0.0990185), wk =   0.0008681
        k(  494) = (   0.2187500   0.1984642  -0.0990185), wk =   0.0008681
        k(  495) = (   0.2187500   0.2225204  -0.0990185), wk =   0.0008681
        k(  496) = (   0.2187500   0.2465767  -0.0990185), wk =   0.0008681
        k(  497) = (   0.2187500   0.2706329  -0.0990185), wk =   0.0008681
        k(  498) = (   0.2187500   0.2946892  -0.0990185), wk =   0.0008681
        k(  499) = (   0.2187500   0.3187455  -0.0990185), wk =   0.0008681
        k(  500) = (   0.2187500   0.3428017  -0.0990185), wk =   0.0008681
        k(  501) = (   0.2187500   0.3668580  -0.0990185), wk =   0.0008681
        k(  502) = (   0.2187500   0.3909142  -0.0990185), wk =   0.0008681
        k(  503) = (   0.2187500   0.4149705  -0.0990185), wk =   0.0008681
        k(  504) = (   0.2187500   0.4390268  -0.0990185), wk =   0.0008681
        k(  505) = (   0.2187500  -0.6916175  -0.0990185), wk =   0.0008681
        k(  506) = (   0.2187500  -0.6675612  -0.0990185), wk =   0.0008681
        k(  507) = (   0.2187500  -0.6435050  -0.0990185), wk =   0.0008681
        k(  508) = (   0.2187500  -0.6194487  -0.0990185), wk =   0.0008681
        k(  509) = (   0.2187500  -0.5953925  -0.0990185), wk =   0.0008681
        k(  510) = (   0.2187500  -0.5713362  -0.0990185), wk =   0.0008681
        k(  511) = (   0.2187500  -0.5472799  -0.0990185), wk =   0.0008681
        k(  512) = (   0.2187500  -0.5232237  -0.0990185), wk =   0.0008681
        k(  513) = (   0.2187500  -0.4991674  -0.0990185), wk =   0.0008681
        k(  514) = (   0.2187500  -0.4751112  -0.0990185), wk =   0.0008681
        k(  515) = (   0.2187500  -0.4510549  -0.0990185), wk =   0.0008681
        k(  516) = (   0.2187500  -0.4269986  -0.0990185), wk =   0.0008681
        k(  517) = (   0.2187500  -0.4029424  -0.0990185), wk =   0.0008681
        k(  518) = (   0.2187500  -0.3788861  -0.0990185), wk =   0.0008681
        k(  519) = (   0.2187500  -0.3548299  -0.0990185), wk =   0.0008681
        k(  520) = (   0.2187500  -0.3307736  -0.0990185), wk =   0.0008681
        k(  521) = (   0.2187500  -0.3067173  -0.0990185), wk =   0.0008681
        k(  522) = (   0.2187500  -0.2826611  -0.0990185), wk =   0.0008681
        k(  523) = (   0.2187500  -0.2586048  -0.0990185), wk =   0.0008681
        k(  524) = (   0.2187500  -0.2345485  -0.0990185), wk =   0.0008681
        k(  525) = (   0.2187500  -0.2104923  -0.0990185), wk =   0.0008681
        k(  526) = (   0.2187500  -0.1864360  -0.0990185), wk =   0.0008681
        k(  527) = (   0.2187500  -0.1623798  -0.0990185), wk =   0.0008681
        k(  528) = (   0.2187500  -0.1383235  -0.0990185), wk =   0.0008681
        k(  529) = (   0.2395833  -0.1262954  -0.0990185), wk =   0.0008681
        k(  530) = (   0.2395833  -0.1022391  -0.0990185), wk =   0.0008681
        k(  531) = (   0.2395833  -0.0781828  -0.0990185), wk =   0.0008681
        k(  532) = (   0.2395833  -0.0541266  -0.0990185), wk =   0.0008681
        k(  533) = (   0.2395833  -0.0300703  -0.0990185), wk =   0.0008681
        k(  534) = (   0.2395833  -0.0060141  -0.0990185), wk =   0.0008681
        k(  535) = (   0.2395833   0.0180422  -0.0990185), wk =   0.0008681
        k(  536) = (   0.2395833   0.0420985  -0.0990185), wk =   0.0008681
        k(  537) = (   0.2395833   0.0661547  -0.0990185), wk =   0.0008681
        k(  538) = (   0.2395833   0.0902110  -0.0990185), wk =   0.0008681
        k(  539) = (   0.2395833   0.1142672  -0.0990185), wk =   0.0008681
        k(  540) = (   0.2395833   0.1383235  -0.0990185), wk =   0.0008681
        k(  541) = (   0.2395833   0.1623798  -0.0990185), wk =   0.0008681
        k(  542) = (   0.2395833   0.1864360  -0.0990185), wk =   0.0008681
        k(  543) = (   0.2395833   0.2104923  -0.0990185), wk =   0.0008681
        k(  544) = (   0.2395833   0.2345485  -0.0990185), wk =   0.0008681
        k(  545) = (   0.2395833   0.2586048  -0.0990185), wk =   0.0008681
        k(  546) = (   0.2395833   0.2826611  -0.0990185), wk =   0.0008681
        k(  547) = (   0.2395833   0.3067173  -0.0990185), wk =   0.0008681
        k(  548) = (   0.2395833   0.3307736  -0.0990185), wk =   0.0008681
        k(  549) = (   0.2395833   0.3548299  -0.0990185), wk =   0.0008681
        k(  550) = (   0.2395833   0.3788861  -0.0990185), wk =   0.0008681
        k(  551) = (   0.2395833   0.4029424  -0.0990185), wk =   0.0008681
        k(  552) = (   0.2395833   0.4269986  -0.0990185), wk =   0.0008681
        k(  553) = (   0.2395833  -0.7036456  -0.0990185), wk =   0.0008681
        k(  554) = (   0.2395833  -0.6795894  -0.0990185), wk =   0.0008681
        k(  555) = (   0.2395833  -0.6555331  -0.0990185), wk =   0.0008681
        k(  556) = (   0.2395833  -0.6314769  -0.0990185), wk =   0.0008681
        k(  557) = (   0.2395833  -0.6074206  -0.0990185), wk =   0.0008681
        k(  558) = (   0.2395833  -0.5833643  -0.0990185), wk =   0.0008681
        k(  559) = (   0.2395833  -0.5593081  -0.0990185), wk =   0.0008681
        k(  560) = (   0.2395833  -0.5352518  -0.0990185), wk =   0.0008681
        k(  561) = (   0.2395833  -0.5111956  -0.0990185), wk =   0.0008681
        k(  562) = (   0.2395833  -0.4871393  -0.0990185), wk =   0.0008681
        k(  563) = (   0.2395833  -0.4630830  -0.0990185), wk =   0.0008681
        k(  564) = (   0.2395833  -0.4390268  -0.0990185), wk =   0.0008681
        k(  565) = (   0.2395833  -0.4149705  -0.0990185), wk =   0.0008681
        k(  566) = (   0.2395833  -0.3909142  -0.0990185), wk =   0.0008681
        k(  567) = (   0.2395833  -0.3668580  -0.0990185), wk =   0.0008681
        k(  568) = (   0.2395833  -0.3428017  -0.0990185), wk =   0.0008681
        k(  569) = (   0.2395833  -0.3187455  -0.0990185), wk =   0.0008681
        k(  570) = (   0.2395833  -0.2946892  -0.0990185), wk =   0.0008681
        k(  571) = (   0.2395833  -0.2706329  -0.0990185), wk =   0.0008681
        k(  572) = (   0.2395833  -0.2465767  -0.0990185), wk =   0.0008681
        k(  573) = (   0.2395833  -0.2225204  -0.0990185), wk =   0.0008681
        k(  574) = (   0.2395833  -0.1984642  -0.0990185), wk =   0.0008681
        k(  575) = (   0.2395833  -0.1744079  -0.0990185), wk =   0.0008681
        k(  576) = (   0.2395833  -0.1503516  -0.0990185), wk =   0.0008681
        k(  577) = (   0.2604167  -0.1383235  -0.0990185), wk =   0.0008681
        k(  578) = (   0.2604167  -0.1142672  -0.0990185), wk =   0.0008681
        k(  579) = (   0.2604167  -0.0902110  -0.0990185), wk =   0.0008681
        k(  580) = (   0.2604167  -0.0661547  -0.0990185), wk =   0.0008681
        k(  581) = (   0.2604167  -0.0420985  -0.0990185), wk =   0.0008681
        k(  582) = (   0.2604167  -0.0180422  -0.0990185), wk =   0.0008681
        k(  583) = (   0.2604167   0.0060141  -0.0990185), wk =   0.0008681
        k(  584) = (   0.2604167   0.0300703  -0.0990185), wk =   0.0008681
        k(  585) = (   0.2604167   0.0541266  -0.0990185), wk =   0.0008681
        k(  586) = (   0.2604167   0.0781828  -0.0990185), wk =   0.0008681
        k(  587) = (   0.2604167   0.1022391  -0.0990185), wk =   0.0008681
        k(  588) = (   0.2604167   0.1262954  -0.0990185), wk =   0.0008681
        k(  589) = (   0.2604167   0.1503516  -0.0990185), wk =   0.0008681
        k(  590) = (   0.2604167   0.1744079  -0.0990185), wk =   0.0008681
        k(  591) = (   0.2604167   0.1984642  -0.0990185), wk =   0.0008681
        k(  592) = (   0.2604167   0.2225204  -0.0990185), wk =   0.0008681
        k(  593) = (   0.2604167   0.2465767  -0.0990185), wk =   0.0008681
        k(  594) = (   0.2604167   0.2706329  -0.0990185), wk =   0.0008681
        k(  595) = (   0.2604167   0.2946892  -0.0990185), wk =   0.0008681
        k(  596) = (   0.2604167   0.3187455  -0.0990185), wk =   0.0008681
        k(  597) = (   0.2604167   0.3428017  -0.0990185), wk =   0.0008681
        k(  598) = (   0.2604167   0.3668580  -0.0990185), wk =   0.0008681
        k(  599) = (   0.2604167   0.3909142  -0.0990185), wk =   0.0008681
        k(  600) = (   0.2604167   0.4149705  -0.0990185), wk =   0.0008681
        k(  601) = (   0.2604167  -0.7156738  -0.0990185), wk =   0.0008681
        k(  602) = (   0.2604167  -0.6916175  -0.0990185), wk =   0.0008681
        k(  603) = (   0.2604167  -0.6675612  -0.0990185), wk =   0.0008681
        k(  604) = (   0.2604167  -0.6435050  -0.0990185), wk =   0.0008681
        k(  605) = (   0.2604167  -0.6194487  -0.0990185), wk =   0.0008681
        k(  606) = (   0.2604167  -0.5953925  -0.0990185), wk =   0.0008681
        k(  607) = (   0.2604167  -0.5713362  -0.0990185), wk =   0.0008681
        k(  608) = (   0.2604167  -0.5472799  -0.0990185), wk =   0.0008681
        k(  609) = (   0.2604167  -0.5232237  -0.0990185), wk =   0.0008681
        k(  610) = (   0.2604167  -0.4991674  -0.0990185), wk =   0.0008681
        k(  611) = (   0.2604167  -0.4751112  -0.0990185), wk =   0.0008681
        k(  612) = (   0.2604167  -0.4510549  -0.0990185), wk =   0.0008681
        k(  613) = (   0.2604167  -0.4269986  -0.0990185), wk =   0.0008681
        k(  614) = (   0.2604167  -0.4029424  -0.0990185), wk =   0.0008681
        k(  615) = (   0.2604167  -0.3788861  -0.0990185), wk =   0.0008681
        k(  616) = (   0.2604167  -0.3548299  -0.0990185), wk =   0.0008681
        k(  617) = (   0.2604167  -0.3307736  -0.0990185), wk =   0.0008681
        k(  618) = (   0.2604167  -0.3067173  -0.0990185), wk =   0.0008681
        k(  619) = (   0.2604167  -0.2826611  -0.0990185), wk =   0.0008681
        k(  620) = (   0.2604167  -0.2586048  -0.0990185), wk =   0.0008681
        k(  621) = (   0.2604167  -0.2345485  -0.0990185), wk =   0.0008681
        k(  622) = (   0.2604167  -0.2104923  -0.0990185), wk =   0.0008681
        k(  623) = (   0.2604167  -0.1864360  -0.0990185), wk =   0.0008681
        k(  624) = (   0.2604167  -0.1623798  -0.0990185), wk =   0.0008681
        k(  625) = (   0.2812500  -0.1503516  -0.0990185), wk =   0.0008681
        k(  626) = (   0.2812500  -0.1262954  -0.0990185), wk =   0.0008681
        k(  627) = (   0.2812500  -0.1022391  -0.0990185), wk =   0.0008681
        k(  628) = (   0.2812500  -0.0781828  -0.0990185), wk =   0.0008681
        k(  629) = (   0.2812500  -0.0541266  -0.0990185), wk =   0.0008681
        k(  630) = (   0.2812500  -0.0300703  -0.0990185), wk =   0.0008681
        k(  631) = (   0.2812500  -0.0060141  -0.0990185), wk =   0.0008681
        k(  632) = (   0.2812500   0.0180422  -0.0990185), wk =   0.0008681
        k(  633) = (   0.2812500   0.0420985  -0.0990185), wk =   0.0008681
        k(  634) = (   0.2812500   0.0661547  -0.0990185), wk =   0.0008681
        k(  635) = (   0.2812500   0.0902110  -0.0990185), wk =   0.0008681
        k(  636) = (   0.2812500   0.1142672  -0.0990185), wk =   0.0008681
        k(  637) = (   0.2812500   0.1383235  -0.0990185), wk =   0.0008681
        k(  638) = (   0.2812500   0.1623798  -0.0990185), wk =   0.0008681
        k(  639) = (   0.2812500   0.1864360  -0.0990185), wk =   0.0008681
        k(  640) = (   0.2812500   0.2104923  -0.0990185), wk =   0.0008681
        k(  641) = (   0.2812500   0.2345485  -0.0990185), wk =   0.0008681
        k(  642) = (   0.2812500   0.2586048  -0.0990185), wk =   0.0008681
        k(  643) = (   0.2812500   0.2826611  -0.0990185), wk =   0.0008681
        k(  644) = (   0.2812500   0.3067173  -0.0990185), wk =   0.0008681
        k(  645) = (   0.2812500   0.3307736  -0.0990185), wk =   0.0008681
        k(  646) = (   0.2812500   0.3548299  -0.0990185), wk =   0.0008681
        k(  647) = (   0.2812500   0.3788861  -0.0990185), wk =   0.0008681
        k(  648) = (   0.2812500   0.4029424  -0.0990185), wk =   0.0008681
        k(  649) = (   0.2812500  -0.7277019  -0.0990185), wk =   0.0008681
        k(  650) = (   0.2812500  -0.7036456  -0.0990185), wk =   0.0008681
        k(  651) = (   0.2812500  -0.6795894  -0.0990185), wk =   0.0008681
        k(  652) = (   0.2812500  -0.6555331  -0.0990185), wk =   0.0008681
        k(  653) = (   0.2812500  -0.6314769  -0.0990185), wk =   0.0008681
        k(  654) = (   0.2812500  -0.6074206  -0.0990185), wk =   0.0008681
        k(  655) = (   0.2812500  -0.5833643  -0.0990185), wk =   0.0008681
        k(  656) = (   0.2812500  -0.5593081  -0.0990185), wk =   0.0008681
        k(  657) = (   0.2812500  -0.5352518  -0.0990185), wk =   0.0008681
        k(  658) = (   0.2812500  -0.5111956  -0.0990185), wk =   0.0008681
        k(  659) = (   0.2812500  -0.4871393  -0.0990185), wk =   0.0008681
        k(  660) = (   0.2812500  -0.4630830  -0.0990185), wk =   0.0008681
        k(  661) = (   0.2812500  -0.4390268  -0.0990185), wk =   0.0008681
        k(  662) = (   0.2812500  -0.4149705  -0.0990185), wk =   0.0008681
        k(  663) = (   0.2812500  -0.3909142  -0.0990185), wk =   0.0008681
        k(  664) = (   0.2812500  -0.3668580  -0.0990185), wk =   0.0008681
        k(  665) = (   0.2812500  -0.3428017  -0.0990185), wk =   0.0008681
        k(  666) = (   0.2812500  -0.3187455  -0.0990185), wk =   0.0008681
        k(  667) = (   0.2812500  -0.2946892  -0.0990185), wk =   0.0008681
        k(  668) = (   0.2812500  -0.2706329  -0.0990185), wk =   0.0008681
        k(  669) = (   0.2812500  -0.2465767  -0.0990185), wk =   0.0008681
        k(  670) = (   0.2812500  -0.2225204  -0.0990185), wk =   0.0008681
        k(  671) = (   0.2812500  -0.1984642  -0.0990185), wk =   0.0008681
        k(  672) = (   0.2812500  -0.1744079  -0.0990185), wk =   0.0008681
        k(  673) = (   0.3020833  -0.1623798  -0.0990185), wk =   0.0008681
        k(  674) = (   0.3020833  -0.1383235  -0.0990185), wk =   0.0008681
        k(  675) = (   0.3020833  -0.1142672  -0.0990185), wk =   0.0008681
        k(  676) = (   0.3020833  -0.0902110  -0.0990185), wk =   0.0008681
        k(  677) = (   0.3020833  -0.0661547  -0.0990185), wk =   0.0008681
        k(  678) = (   0.3020833  -0.0420985  -0.0990185), wk =   0.0008681
        k(  679) = (   0.3020833  -0.0180422  -0.0990185), wk =   0.0008681
        k(  680) = (   0.3020833   0.0060141  -0.0990185), wk =   0.0008681
        k(  681) = (   0.3020833   0.0300703  -0.0990185), wk =   0.0008681
        k(  682) = (   0.3020833   0.0541266  -0.0990185), wk =   0.0008681
        k(  683) = (   0.3020833   0.0781828  -0.0990185), wk =   0.0008681
        k(  684) = (   0.3020833   0.1022391  -0.0990185), wk =   0.0008681
        k(  685) = (   0.3020833   0.1262954  -0.0990185), wk =   0.0008681
        k(  686) = (   0.3020833   0.1503516  -0.0990185), wk =   0.0008681
        k(  687) = (   0.3020833   0.1744079  -0.0990185), wk =   0.0008681
        k(  688) = (   0.3020833   0.1984642  -0.0990185), wk =   0.0008681
        k(  689) = (   0.3020833   0.2225204  -0.0990185), wk =   0.0008681
        k(  690) = (   0.3020833   0.2465767  -0.0990185), wk =   0.0008681
        k(  691) = (   0.3020833   0.2706329  -0.0990185), wk =   0.0008681
        k(  692) = (   0.3020833   0.2946892  -0.0990185), wk =   0.0008681
        k(  693) = (   0.3020833   0.3187455  -0.0990185), wk =   0.0008681
        k(  694) = (   0.3020833   0.3428017  -0.0990185), wk =   0.0008681
        k(  695) = (   0.3020833   0.3668580  -0.0990185), wk =   0.0008681
        k(  696) = (   0.3020833   0.3909142  -0.0990185), wk =   0.0008681
        k(  697) = (   0.3020833  -0.7397300  -0.0990185), wk =   0.0008681
        k(  698) = (   0.3020833  -0.7156738  -0.0990185), wk =   0.0008681
        k(  699) = (   0.3020833  -0.6916175  -0.0990185), wk =   0.0008681
        k(  700) = (   0.3020833  -0.6675612  -0.0990185), wk =   0.0008681
        k(  701) = (   0.3020833  -0.6435050  -0.0990185), wk =   0.0008681
        k(  702) = (   0.3020833  -0.6194487  -0.0990185), wk =   0.0008681
        k(  703) = (   0.3020833  -0.5953925  -0.0990185), wk =   0.0008681
        k(  704) = (   0.3020833  -0.5713362  -0.0990185), wk =   0.0008681
        k(  705) = (   0.3020833  -0.5472799  -0.0990185), wk =   0.0008681
        k(  706) = (   0.3020833  -0.5232237  -0.0990185), wk =   0.0008681
        k(  707) = (   0.3020833  -0.4991674  -0.0990185), wk =   0.0008681
        k(  708) = (   0.3020833  -0.4751112  -0.0990185), wk =   0.0008681
        k(  709) = (   0.3020833  -0.4510549  -0.0990185), wk =   0.0008681
        k(  710) = (   0.3020833  -0.4269986  -0.0990185), wk =   0.0008681
        k(  711) = (   0.3020833  -0.4029424  -0.0990185), wk =   0.0008681
        k(  712) = (   0.3020833  -0.3788861  -0.0990185), wk =   0.0008681
        k(  713) = (   0.3020833  -0.3548299  -0.0990185), wk =   0.0008681
        k(  714) = (   0.3020833  -0.3307736  -0.0990185), wk =   0.0008681
        k(  715) = (   0.3020833  -0.3067173  -0.0990185), wk =   0.0008681
        k(  716) = (   0.3020833  -0.2826611  -0.0990185), wk =   0.0008681
        k(  717) = (   0.3020833  -0.2586048  -0.0990185), wk =   0.0008681
        k(  718) = (   0.3020833  -0.2345485  -0.0990185), wk =   0.0008681
        k(  719) = (   0.3020833  -0.2104923  -0.0990185), wk =   0.0008681
        k(  720) = (   0.3020833  -0.1864360  -0.0990185), wk =   0.0008681
        k(  721) = (   0.3229167  -0.1744079  -0.0990185), wk =   0.0008681
        k(  722) = (   0.3229167  -0.1503516  -0.0990185), wk =   0.0008681
        k(  723) = (   0.3229167  -0.1262954  -0.0990185), wk =   0.0008681
        k(  724) = (   0.3229167  -0.1022391  -0.0990185), wk =   0.0008681
        k(  725) = (   0.3229167  -0.0781828  -0.0990185), wk =   0.0008681
        k(  726) = (   0.3229167  -0.0541266  -0.0990185), wk =   0.0008681
        k(  727) = (   0.3229167  -0.0300703  -0.0990185), wk =   0.0008681
        k(  728) = (   0.3229167  -0.0060141  -0.0990185), wk =   0.0008681
        k(  729) = (   0.3229167   0.0180422  -0.0990185), wk =   0.0008681
        k(  730) = (   0.3229167   0.0420985  -0.0990185), wk =   0.0008681
        k(  731) = (   0.3229167   0.0661547  -0.0990185), wk =   0.0008681
        k(  732) = (   0.3229167   0.0902110  -0.0990185), wk =   0.0008681
        k(  733) = (   0.3229167   0.1142672  -0.0990185), wk =   0.0008681
        k(  734) = (   0.3229167   0.1383235  -0.0990185), wk =   0.0008681
        k(  735) = (   0.3229167   0.1623798  -0.0990185), wk =   0.0008681
        k(  736) = (   0.3229167   0.1864360  -0.0990185), wk =   0.0008681
        k(  737) = (   0.3229167   0.2104923  -0.0990185), wk =   0.0008681
        k(  738) = (   0.3229167   0.2345485  -0.0990185), wk =   0.0008681
        k(  739) = (   0.3229167   0.2586048  -0.0990185), wk =   0.0008681
        k(  740) = (   0.3229167   0.2826611  -0.0990185), wk =   0.0008681
        k(  741) = (   0.3229167   0.3067173  -0.0990185), wk =   0.0008681
        k(  742) = (   0.3229167   0.3307736  -0.0990185), wk =   0.0008681
        k(  743) = (   0.3229167   0.3548299  -0.0990185), wk =   0.0008681
        k(  744) = (   0.3229167   0.3788861  -0.0990185), wk =   0.0008681
        k(  745) = (   0.3229167  -0.7517582  -0.0990185), wk =   0.0008681
        k(  746) = (   0.3229167  -0.7277019  -0.0990185), wk =   0.0008681
        k(  747) = (   0.3229167  -0.7036456  -0.0990185), wk =   0.0008681
        k(  748) = (   0.3229167  -0.6795894  -0.0990185), wk =   0.0008681
        k(  749) = (   0.3229167  -0.6555331  -0.0990185), wk =   0.0008681
        k(  750) = (   0.3229167  -0.6314769  -0.0990185), wk =   0.0008681
        k(  751) = (   0.3229167  -0.6074206  -0.0990185), wk =   0.0008681
        k(  752) = (   0.3229167  -0.5833643  -0.0990185), wk =   0.0008681
        k(  753) = (   0.3229167  -0.5593081  -0.0990185), wk =   0.0008681
        k(  754) = (   0.3229167  -0.5352518  -0.0990185), wk =   0.0008681
        k(  755) = (   0.3229167  -0.5111956  -0.0990185), wk =   0.0008681
        k(  756) = (   0.3229167  -0.4871393  -0.0990185), wk =   0.0008681
        k(  757) = (   0.3229167  -0.4630830  -0.0990185), wk =   0.0008681
        k(  758) = (   0.3229167  -0.4390268  -0.0990185), wk =   0.0008681
        k(  759) = (   0.3229167  -0.4149705  -0.0990185), wk =   0.0008681
        k(  760) = (   0.3229167  -0.3909142  -0.0990185), wk =   0.0008681
        k(  761) = (   0.3229167  -0.3668580  -0.0990185), wk =   0.0008681
        k(  762) = (   0.3229167  -0.3428017  -0.0990185), wk =   0.0008681
        k(  763) = (   0.3229167  -0.3187455  -0.0990185), wk =   0.0008681
        k(  764) = (   0.3229167  -0.2946892  -0.0990185), wk =   0.0008681
        k(  765) = (   0.3229167  -0.2706329  -0.0990185), wk =   0.0008681
        k(  766) = (   0.3229167  -0.2465767  -0.0990185), wk =   0.0008681
        k(  767) = (   0.3229167  -0.2225204  -0.0990185), wk =   0.0008681
        k(  768) = (   0.3229167  -0.1984642  -0.0990185), wk =   0.0008681
        k(  769) = (   0.3437500  -0.1864360  -0.0990185), wk =   0.0008681
        k(  770) = (   0.3437500  -0.1623798  -0.0990185), wk =   0.0008681
        k(  771) = (   0.3437500  -0.1383235  -0.0990185), wk =   0.0008681
        k(  772) = (   0.3437500  -0.1142672  -0.0990185), wk =   0.0008681
        k(  773) = (   0.3437500  -0.0902110  -0.0990185), wk =   0.0008681
        k(  774) = (   0.3437500  -0.0661547  -0.0990185), wk =   0.0008681
        k(  775) = (   0.3437500  -0.0420985  -0.0990185), wk =   0.0008681
        k(  776) = (   0.3437500  -0.0180422  -0.0990185), wk =   0.0008681
        k(  777) = (   0.3437500   0.0060141  -0.0990185), wk =   0.0008681
        k(  778) = (   0.3437500   0.0300703  -0.0990185), wk =   0.0008681
        k(  779) = (   0.3437500   0.0541266  -0.0990185), wk =   0.0008681
        k(  780) = (   0.3437500   0.0781828  -0.0990185), wk =   0.0008681
        k(  781) = (   0.3437500   0.1022391  -0.0990185), wk =   0.0008681
        k(  782) = (   0.3437500   0.1262954  -0.0990185), wk =   0.0008681
        k(  783) = (   0.3437500   0.1503516  -0.0990185), wk =   0.0008681
        k(  784) = (   0.3437500   0.1744079  -0.0990185), wk =   0.0008681
        k(  785) = (   0.3437500   0.1984642  -0.0990185), wk =   0.0008681
        k(  786) = (   0.3437500   0.2225204  -0.0990185), wk =   0.0008681
        k(  787) = (   0.3437500   0.2465767  -0.0990185), wk =   0.0008681
        k(  788) = (   0.3437500   0.2706329  -0.0990185), wk =   0.0008681
        k(  789) = (   0.3437500   0.2946892  -0.0990185), wk =   0.0008681
        k(  790) = (   0.3437500   0.3187455  -0.0990185), wk =   0.0008681
        k(  791) = (   0.3437500   0.3428017  -0.0990185), wk =   0.0008681
        k(  792) = (   0.3437500   0.3668580  -0.0990185), wk =   0.0008681
        k(  793) = (   0.3437500  -0.7637863  -0.0990185), wk =   0.0008681
        k(  794) = (   0.3437500  -0.7397300  -0.0990185), wk =   0.0008681
        k(  795) = (   0.3437500  -0.7156738  -0.0990185), wk =   0.0008681
        k(  796) = (   0.3437500  -0.6916175  -0.0990185), wk =   0.0008681
        k(  797) = (   0.3437500  -0.6675612  -0.0990185), wk =   0.0008681
        k(  798) = (   0.3437500  -0.6435050  -0.0990185), wk =   0.0008681
        k(  799) = (   0.3437500  -0.6194487  -0.0990185), wk =   0.0008681
        k(  800) = (   0.3437500  -0.5953925  -0.0990185), wk =   0.0008681
        k(  801) = (   0.3437500  -0.5713362  -0.0990185), wk =   0.0008681
        k(  802) = (   0.3437500  -0.5472799  -0.0990185), wk =   0.0008681
        k(  803) = (   0.3437500  -0.5232237  -0.0990185), wk =   0.0008681
        k(  804) = (   0.3437500  -0.4991674  -0.0990185), wk =   0.0008681
        k(  805) = (   0.3437500  -0.4751112  -0.0990185), wk =   0.0008681
        k(  806) = (   0.3437500  -0.4510549  -0.0990185), wk =   0.0008681
        k(  807) = (   0.3437500  -0.4269986  -0.0990185), wk =   0.0008681
        k(  808) = (   0.3437500  -0.4029424  -0.0990185), wk =   0.0008681
        k(  809) = (   0.3437500  -0.3788861  -0.0990185), wk =   0.0008681
        k(  810) = (   0.3437500  -0.3548299  -0.0990185), wk =   0.0008681
        k(  811) = (   0.3437500  -0.3307736  -0.0990185), wk =   0.0008681
        k(  812) = (   0.3437500  -0.3067173  -0.0990185), wk =   0.0008681
        k(  813) = (   0.3437500  -0.2826611  -0.0990185), wk =   0.0008681
        k(  814) = (   0.3437500  -0.2586048  -0.0990185), wk =   0.0008681
        k(  815) = (   0.3437500  -0.2345485  -0.0990185), wk =   0.0008681
        k(  816) = (   0.3437500  -0.2104923  -0.0990185), wk =   0.0008681
        k(  817) = (   0.3645833  -0.1984642  -0.0990185), wk =   0.0008681
        k(  818) = (   0.3645833  -0.1744079  -0.0990185), wk =   0.0008681
        k(  819) = (   0.3645833  -0.1503516  -0.0990185), wk =   0.0008681
        k(  820) = (   0.3645833  -0.1262954  -0.0990185), wk =   0.0008681
        k(  821) = (   0.3645833  -0.1022391  -0.0990185), wk =   0.0008681
        k(  822) = (   0.3645833  -0.0781828  -0.0990185), wk =   0.0008681
        k(  823) = (   0.3645833  -0.0541266  -0.0990185), wk =   0.0008681
        k(  824) = (   0.3645833  -0.0300703  -0.0990185), wk =   0.0008681
        k(  825) = (   0.3645833  -0.0060141  -0.0990185), wk =   0.0008681
        k(  826) = (   0.3645833   0.0180422  -0.0990185), wk =   0.0008681
        k(  827) = (   0.3645833   0.0420985  -0.0990185), wk =   0.0008681
        k(  828) = (   0.3645833   0.0661547  -0.0990185), wk =   0.0008681
        k(  829) = (   0.3645833   0.0902110  -0.0990185), wk =   0.0008681
        k(  830) = (   0.3645833   0.1142672  -0.0990185), wk =   0.0008681
        k(  831) = (   0.3645833   0.1383235  -0.0990185), wk =   0.0008681
        k(  832) = (   0.3645833   0.1623798  -0.0990185), wk =   0.0008681
        k(  833) = (   0.3645833   0.1864360  -0.0990185), wk =   0.0008681
        k(  834) = (   0.3645833   0.2104923  -0.0990185), wk =   0.0008681
        k(  835) = (   0.3645833   0.2345485  -0.0990185), wk =   0.0008681
        k(  836) = (   0.3645833   0.2586048  -0.0990185), wk =   0.0008681
        k(  837) = (   0.3645833   0.2826611  -0.0990185), wk =   0.0008681
        k(  838) = (   0.3645833   0.3067173  -0.0990185), wk =   0.0008681
        k(  839) = (   0.3645833   0.3307736  -0.0990185), wk =   0.0008681
        k(  840) = (   0.3645833   0.3548299  -0.0990185), wk =   0.0008681
        k(  841) = (   0.3645833  -0.7758144  -0.0990185), wk =   0.0008681
        k(  842) = (   0.3645833  -0.7517582  -0.0990185), wk =   0.0008681
        k(  843) = (   0.3645833  -0.7277019  -0.0990185), wk =   0.0008681
        k(  844) = (   0.3645833  -0.7036456  -0.0990185), wk =   0.0008681
        k(  845) = (   0.3645833  -0.6795894  -0.0990185), wk =   0.0008681
        k(  846) = (   0.3645833  -0.6555331  -0.0990185), wk =   0.0008681
        k(  847) = (   0.3645833  -0.6314769  -0.0990185), wk =   0.0008681
        k(  848) = (   0.3645833  -0.6074206  -0.0990185), wk =   0.0008681
        k(  849) = (   0.3645833  -0.5833643  -0.0990185), wk =   0.0008681
        k(  850) = (   0.3645833  -0.5593081  -0.0990185), wk =   0.0008681
        k(  851) = (   0.3645833  -0.5352518  -0.0990185), wk =   0.0008681
        k(  852) = (   0.3645833  -0.5111956  -0.0990185), wk =   0.0008681
        k(  853) = (   0.3645833  -0.4871393  -0.0990185), wk =   0.0008681
        k(  854) = (   0.3645833  -0.4630830  -0.0990185), wk =   0.0008681
        k(  855) = (   0.3645833  -0.4390268  -0.0990185), wk =   0.0008681
        k(  856) = (   0.3645833  -0.4149705  -0.0990185), wk =   0.0008681
        k(  857) = (   0.3645833  -0.3909142  -0.0990185), wk =   0.0008681
        k(  858) = (   0.3645833  -0.3668580  -0.0990185), wk =   0.0008681
        k(  859) = (   0.3645833  -0.3428017  -0.0990185), wk =   0.0008681
        k(  860) = (   0.3645833  -0.3187455  -0.0990185), wk =   0.0008681
        k(  861) = (   0.3645833  -0.2946892  -0.0990185), wk =   0.0008681
        k(  862) = (   0.3645833  -0.2706329  -0.0990185), wk =   0.0008681
        k(  863) = (   0.3645833  -0.2465767  -0.0990185), wk =   0.0008681
        k(  864) = (   0.3645833  -0.2225204  -0.0990185), wk =   0.0008681
        k(  865) = (   0.3854167  -0.2104923  -0.0990185), wk =   0.0008681
        k(  866) = (   0.3854167  -0.1864360  -0.0990185), wk =   0.0008681
        k(  867) = (   0.3854167  -0.1623798  -0.0990185), wk =   0.0008681
        k(  868) = (   0.3854167  -0.1383235  -0.0990185), wk =   0.0008681
        k(  869) = (   0.3854167  -0.1142672  -0.0990185), wk =   0.0008681
        k(  870) = (   0.3854167  -0.0902110  -0.0990185), wk =   0.0008681
        k(  871) = (   0.3854167  -0.0661547  -0.0990185), wk =   0.0008681
        k(  872) = (   0.3854167  -0.0420985  -0.0990185), wk =   0.0008681
        k(  873) = (   0.3854167  -0.0180422  -0.0990185), wk =   0.0008681
        k(  874) = (   0.3854167   0.0060141  -0.0990185), wk =   0.0008681
        k(  875) = (   0.3854167   0.0300703  -0.0990185), wk =   0.0008681
        k(  876) = (   0.3854167   0.0541266  -0.0990185), wk =   0.0008681
        k(  877) = (   0.3854167   0.0781828  -0.0990185), wk =   0.0008681
        k(  878) = (   0.3854167   0.1022391  -0.0990185), wk =   0.0008681
        k(  879) = (   0.3854167   0.1262954  -0.0990185), wk =   0.0008681
        k(  880) = (   0.3854167   0.1503516  -0.0990185), wk =   0.0008681
        k(  881) = (   0.3854167   0.1744079  -0.0990185), wk =   0.0008681
        k(  882) = (   0.3854167   0.1984642  -0.0990185), wk =   0.0008681
        k(  883) = (   0.3854167   0.2225204  -0.0990185), wk =   0.0008681
        k(  884) = (   0.3854167   0.2465767  -0.0990185), wk =   0.0008681
        k(  885) = (   0.3854167   0.2706329  -0.0990185), wk =   0.0008681
        k(  886) = (   0.3854167   0.2946892  -0.0990185), wk =   0.0008681
        k(  887) = (   0.3854167   0.3187455  -0.0990185), wk =   0.0008681
        k(  888) = (   0.3854167   0.3428017  -0.0990185), wk =   0.0008681
        k(  889) = (   0.3854167  -0.7878426  -0.0990185), wk =   0.0008681
        k(  890) = (   0.3854167  -0.7637863  -0.0990185), wk =   0.0008681
        k(  891) = (   0.3854167  -0.7397300  -0.0990185), wk =   0.0008681
        k(  892) = (   0.3854167  -0.7156738  -0.0990185), wk =   0.0008681
        k(  893) = (   0.3854167  -0.6916175  -0.0990185), wk =   0.0008681
        k(  894) = (   0.3854167  -0.6675612  -0.0990185), wk =   0.0008681
        k(  895) = (   0.3854167  -0.6435050  -0.0990185), wk =   0.0008681
        k(  896) = (   0.3854167  -0.6194487  -0.0990185), wk =   0.0008681
        k(  897) = (   0.3854167  -0.5953925  -0.0990185), wk =   0.0008681
        k(  898) = (   0.3854167  -0.5713362  -0.0990185), wk =   0.0008681
        k(  899) = (   0.3854167  -0.5472799  -0.0990185), wk =   0.0008681
        k(  900) = (   0.3854167  -0.5232237  -0.0990185), wk =   0.0008681
        k(  901) = (   0.3854167  -0.4991674  -0.0990185), wk =   0.0008681
        k(  902) = (   0.3854167  -0.4751112  -0.0990185), wk =   0.0008681
        k(  903) = (   0.3854167  -0.4510549  -0.0990185), wk =   0.0008681
        k(  904) = (   0.3854167  -0.4269986  -0.0990185), wk =   0.0008681
        k(  905) = (   0.3854167  -0.4029424  -0.0990185), wk =   0.0008681
        k(  906) = (   0.3854167  -0.3788861  -0.0990185), wk =   0.0008681
        k(  907) = (   0.3854167  -0.3548299  -0.0990185), wk =   0.0008681
        k(  908) = (   0.3854167  -0.3307736  -0.0990185), wk =   0.0008681
        k(  909) = (   0.3854167  -0.3067173  -0.0990185), wk =   0.0008681
        k(  910) = (   0.3854167  -0.2826611  -0.0990185), wk =   0.0008681
        k(  911) = (   0.3854167  -0.2586048  -0.0990185), wk =   0.0008681
        k(  912) = (   0.3854167  -0.2345485  -0.0990185), wk =   0.0008681
        k(  913) = (   0.4062500  -0.2225204  -0.0990185), wk =   0.0008681
        k(  914) = (   0.4062500  -0.1984642  -0.0990185), wk =   0.0008681
        k(  915) = (   0.4062500  -0.1744079  -0.0990185), wk =   0.0008681
        k(  916) = (   0.4062500  -0.1503516  -0.0990185), wk =   0.0008681
        k(  917) = (   0.4062500  -0.1262954  -0.0990185), wk =   0.0008681
        k(  918) = (   0.4062500  -0.1022391  -0.0990185), wk =   0.0008681
        k(  919) = (   0.4062500  -0.0781828  -0.0990185), wk =   0.0008681
        k(  920) = (   0.4062500  -0.0541266  -0.0990185), wk =   0.0008681
        k(  921) = (   0.4062500  -0.0300703  -0.0990185), wk =   0.0008681
        k(  922) = (   0.4062500  -0.0060141  -0.0990185), wk =   0.0008681
        k(  923) = (   0.4062500   0.0180422  -0.0990185), wk =   0.0008681
        k(  924) = (   0.4062500   0.0420985  -0.0990185), wk =   0.0008681
        k(  925) = (   0.4062500   0.0661547  -0.0990185), wk =   0.0008681
        k(  926) = (   0.4062500   0.0902110  -0.0990185), wk =   0.0008681
        k(  927) = (   0.4062500   0.1142672  -0.0990185), wk =   0.0008681
        k(  928) = (   0.4062500   0.1383235  -0.0990185), wk =   0.0008681
        k(  929) = (   0.4062500   0.1623798  -0.0990185), wk =   0.0008681
        k(  930) = (   0.4062500   0.1864360  -0.0990185), wk =   0.0008681
        k(  931) = (   0.4062500   0.2104923  -0.0990185), wk =   0.0008681
        k(  932) = (   0.4062500   0.2345485  -0.0990185), wk =   0.0008681
        k(  933) = (   0.4062500   0.2586048  -0.0990185), wk =   0.0008681
        k(  934) = (   0.4062500   0.2826611  -0.0990185), wk =   0.0008681
        k(  935) = (   0.4062500   0.3067173  -0.0990185), wk =   0.0008681
        k(  936) = (   0.4062500   0.3307736  -0.0990185), wk =   0.0008681
        k(  937) = (   0.4062500  -0.7998707  -0.0990185), wk =   0.0008681
        k(  938) = (   0.4062500  -0.7758144  -0.0990185), wk =   0.0008681
        k(  939) = (   0.4062500  -0.7517582  -0.0990185), wk =   0.0008681
        k(  940) = (   0.4062500  -0.7277019  -0.0990185), wk =   0.0008681
        k(  941) = (   0.4062500  -0.7036456  -0.0990185), wk =   0.0008681
        k(  942) = (   0.4062500  -0.6795894  -0.0990185), wk =   0.0008681
        k(  943) = (   0.4062500  -0.6555331  -0.0990185), wk =   0.0008681
        k(  944) = (   0.4062500  -0.6314769  -0.0990185), wk =   0.0008681
        k(  945) = (   0.4062500  -0.6074206  -0.0990185), wk =   0.0008681
        k(  946) = (   0.4062500  -0.5833643  -0.0990185), wk =   0.0008681
        k(  947) = (   0.4062500  -0.5593081  -0.0990185), wk =   0.0008681
        k(  948) = (   0.4062500  -0.5352518  -0.0990185), wk =   0.0008681
        k(  949) = (   0.4062500  -0.5111956  -0.0990185), wk =   0.0008681
        k(  950) = (   0.4062500  -0.4871393  -0.0990185), wk =   0.0008681
        k(  951) = (   0.4062500  -0.4630830  -0.0990185), wk =   0.0008681
        k(  952) = (   0.4062500  -0.4390268  -0.0990185), wk =   0.0008681
        k(  953) = (   0.4062500  -0.4149705  -0.0990185), wk =   0.0008681
        k(  954) = (   0.4062500  -0.3909142  -0.0990185), wk =   0.0008681
        k(  955) = (   0.4062500  -0.3668580  -0.0990185), wk =   0.0008681
        k(  956) = (   0.4062500  -0.3428017  -0.0990185), wk =   0.0008681
        k(  957) = (   0.4062500  -0.3187455  -0.0990185), wk =   0.0008681
        k(  958) = (   0.4062500  -0.2946892  -0.0990185), wk =   0.0008681
        k(  959) = (   0.4062500  -0.2706329  -0.0990185), wk =   0.0008681
        k(  960) = (   0.4062500  -0.2465767  -0.0990185), wk =   0.0008681
        k(  961) = (   0.4270833  -0.2345485  -0.0990185), wk =   0.0008681
        k(  962) = (   0.4270833  -0.2104923  -0.0990185), wk =   0.0008681
        k(  963) = (   0.4270833  -0.1864360  -0.0990185), wk =   0.0008681
        k(  964) = (   0.4270833  -0.1623798  -0.0990185), wk =   0.0008681
        k(  965) = (   0.4270833  -0.1383235  -0.0990185), wk =   0.0008681
        k(  966) = (   0.4270833  -0.1142672  -0.0990185), wk =   0.0008681
        k(  967) = (   0.4270833  -0.0902110  -0.0990185), wk =   0.0008681
        k(  968) = (   0.4270833  -0.0661547  -0.0990185), wk =   0.0008681
        k(  969) = (   0.4270833  -0.0420985  -0.0990185), wk =   0.0008681
        k(  970) = (   0.4270833  -0.0180422  -0.0990185), wk =   0.0008681
        k(  971) = (   0.4270833   0.0060141  -0.0990185), wk =   0.0008681
        k(  972) = (   0.4270833   0.0300703  -0.0990185), wk =   0.0008681
        k(  973) = (   0.4270833   0.0541266  -0.0990185), wk =   0.0008681
        k(  974) = (   0.4270833   0.0781828  -0.0990185), wk =   0.0008681
        k(  975) = (   0.4270833   0.1022391  -0.0990185), wk =   0.0008681
        k(  976) = (   0.4270833   0.1262954  -0.0990185), wk =   0.0008681
        k(  977) = (   0.4270833   0.1503516  -0.0990185), wk =   0.0008681
        k(  978) = (   0.4270833   0.1744079  -0.0990185), wk =   0.0008681
        k(  979) = (   0.4270833   0.1984642  -0.0990185), wk =   0.0008681
        k(  980) = (   0.4270833   0.2225204  -0.0990185), wk =   0.0008681
        k(  981) = (   0.4270833   0.2465767  -0.0990185), wk =   0.0008681
        k(  982) = (   0.4270833   0.2706329  -0.0990185), wk =   0.0008681
        k(  983) = (   0.4270833   0.2946892  -0.0990185), wk =   0.0008681
        k(  984) = (   0.4270833   0.3187455  -0.0990185), wk =   0.0008681
        k(  985) = (   0.4270833  -0.8118988  -0.0990185), wk =   0.0008681
[...]

          k =-0.0104 0.4029-0.0990 ( 10934 PWs)   bands (ev):

   -38.3186 -38.3149 -38.2738 -38.2728 -38.2552 -26.1412 -26.1350 -26.0868
   -26.0839 -26.0598 -12.9893  -8.9226  -5.0877  -3.4234  -2.8447  -0.3383
     1.3999   1.9912   3.9140   3.9449   4.8717   4.9650   6.1088   6.5542

     occupation numbers 
     1.0000   1.0000   1.0000   1.0000   1.0000   1.0000   1.0000   1.0000
     1.0000   1.0000   1.0000   1.0000   1.0000   1.0000   1.0000   0.0000
     0.0000   0.0000   0.0000   0.0000   0.0000   0.0000   0.0000   0.0000

          k =-0.0104 0.4270-0.0990 ( 10924 PWs)   bands (ev):

   -38.3186 -38.3147 -38.2739 -38.2728 -38.2551 -26.1413 -26.1347 -26.0870
   -26.0839 -26.0596 -12.8873  -9.0400  -5.0933  -3.4803  -2.9543  -0.2971
     1.2899   1.9912   3.8944   4.1181   4.9860   5.1270   6.1778   6.7309

     occupation numbers 
     1.0000   1.0000   1.0000   1.0000   1.0000   1.0000   1.0000   1.0000
     1.0000   1.0000   1.0000   1.0000   1.0000   1.0000   1.0000   0.0000
     0.0000   0.0000   0.0000   0.0000   0.0000   0.0000   0.0000   0.0000

          k =-0.0104 0.4511-0.0990 ( 10914 PWs)   bands (ev):

   -38.3186 -38.3144 -38.2739 -38.2728 -38.2549 -26.1414 -26.1344 -26.0872
   -26.0840 -26.0594 -12.7904  -9.1555  -5.0821  -3.5292  -3.0633  -0.2471
     1.1855   1.9890   3.8470   4.3102   5.1073   5.3210   6.2096   6.8372

     occupation numbers 
     1.0000   1.0000   1.0000   1.0000   1.0000   1.0000   1.0000   1.0000
     1.0000   1.0000   1.0000   1.0000   1.0000   1.0000   1.0000   0.0000
     0.0000   0.0000   0.0000   0.0000   0.0000   0.0000   0.0000   0.0000

          k =-0.0104 0.4751-0.0990 ( 10906 PWs)   bands (ev):

   -38.3186 -38.3143 -38.2740 -38.2729 -38.2548 -26.1414 -26.1342 -26.0874
   -26.0840 -26.0593 -12.7018  -9.2632  -5.0592  -3.5699  -3.1665  -0.1930
     1.0901   1.9856   3.7915   4.5129   5.2407   5.5300   6.2036   6.7487

     occupation numbers 
     1.0000   1.0000   1.0000   1.0000   1.0000   1.0000   1.0000   1.0000
     1.0000   1.0000   1.0000   1.0000   1.0000   1.0000   1.0000   0.0000
     0.0000   0.0000   0.0000   0.0000   0.0000   0.0000   0.0000   0.0000

          k =-0.0104 0.4992-0.0990 ( 10896 PWs)   bands (ev):

   -38.3186 -38.3141 -38.2740 -38.2729 -38.2548 -26.1415 -26.1340 -26.0875
   -26.0840 -26.0592 -12.6251  -9.3574  -5.0307  -3.6021  -3.2583  -0.1397
     1.0071   1.9819   3.7380   4.7245   5.3755   5.7510   6.1621   6.5395

     occupation numbers 
     1.0000   1.0000   1.0000   1.0000   1.0000   1.0000   1.0000   1.0000
     1.0000   1.0000   1.0000   1.0000   1.0000   1.0000   1.0000   0.0000
     0.0000   0.0000   0.0000   0.0000   0.0000   0.0000   0.0000   0.0000

          k =-0.0104 0.5232-0.0990 ( 10912 PWs)   bands (ev):

   -38.3186 -38.3140 -38.2741 -38.2729 -38.2547 -26.1416 -26.1339 -26.0876
   -26.0840 -26.0591 -12.5646  -9.4323  -5.0026  -3.6257  -3.3326  -0.0929
     0.9402   1.9787   3.6935   4.9428   5.4935   5.9810   6.0634   6.3848

     occupation numbers 
     1.0000   1.0000   1.0000   1.0000   1.0000   1.0000   1.0000   1.0000
     1.0000   1.0000   1.0000   1.0000   1.0000   1.0000   1.0000   0.0000
     0.0000   0.0000   0.0000   0.0000   0.0000   0.0000   0.0000   0.0000

          k =-0.0104 0.5473-0.0990 ( 10916 PWs)   bands (ev):

   -38.3186 -38.3139 -38.2741 -38.2729 -38.2547 -26.1416 -26.1338 -26.0877
   -26.0841 -26.0591 -12.5238  -9.4827  -4.9809  -3.6406  -3.3837  -0.0588
     0.8942   1.9764   3.6631   5.1617   5.5577   5.9055   6.2259   6.3311

     occupation numbers 
     1.0000   1.0000   1.0000   1.0000   1.0000   1.0000   1.0000   1.0000
     1.0000   1.0000   1.0000   1.0000   1.0000   1.0000   1.0000   0.0000
     0.0000   0.0000   0.0000   0.0000   0.0000   0.0000   0.0000   0.0000

          k =-0.0104 0.5713-0.0990 ( 10908 PWs)   bands (ev):

   -38.3186 -38.3139 -38.2741 -38.2729 -38.2546 -26.1416 -26.1337 -26.0877
   -26.0841 -26.0591 -12.5058  -9.5051  -4.9707  -3.6470  -3.4066  -0.0429
     0.8734   1.9754   3.6495   5.3495   5.5073   5.8183   6.3189   6.4827

     occupation numbers 
     1.0000   1.0000   1.0000   1.0000   1.0000   1.0000   1.0000   1.0000
     1.0000   1.0000   1.0000   1.0000   1.0000   1.0000   1.0000   0.0000
     0.0000   0.0000   0.0000   0.0000   0.0000   0.0000   0.0000   0.0000

          k =-0.0104-0.5593-0.0990 ( 10912 PWs)   bands (ev):

   -38.3186 -38.3139 -38.2741 -38.2729 -38.2547 -26.1416 -26.1338 -26.0877
   -26.0841 -26.0591 -12.5118  -9.4976  -4.9742  -3.6449  -3.3989  -0.0483
     0.8804   1.9757   3.6541   5.2654   5.5468   5.8464   6.3155   6.3602

     occupation numbers 
     1.0000   1.0000   1.0000   1.0000   1.0000   1.0000   1.0000   1.0000
     1.0000   1.0000   1.0000   1.0000   1.0000   1.0000   1.0000   0.0000
     0.0000   0.0000   0.0000   0.0000   0.0000   0.0000   0.0000   0.0000

          k =-0.0104-0.5353-0.0990 ( 10918 PWs)   bands (ev):

   -38.3186 -38.3140 -38.2741 -38.2729 -38.2547 -26.1416 -26.1338 -26.0877
   -26.0841 -26.0591 -12.5415  -9.4608  -4.9906  -3.6343  -3.3614  -0.0739
     0.9143   1.9774   3.6763   5.0528   5.5361   5.9824   6.1055   6.3475

     occupation numbers 
     1.0000   1.0000   1.0000   1.0000   1.0000   1.0000   1.0000   1.0000
     1.0000   1.0000   1.0000   1.0000   1.0000   1.0000   1.0000   0.0000
     0.0000   0.0000   0.0000   0.0000   0.0000   0.0000   0.0000   0.0000

          k =-0.0104-0.5112-0.0990 ( 10904 PWs)   bands (ev):

   -38.3186 -38.3140 -38.2741 -38.2729 -38.2547 -26.1415 -26.1339 -26.0876
   -26.0840 -26.0592 -12.5926  -9.3976  -5.0162  -3.6150  -3.2980  -0.1151
     0.9713   1.9802   3.7143   4.8330   5.4382   5.8654   6.1218   6.4494

     occupation numbers 
     1.0000   1.0000   1.0000   1.0000   1.0000   1.0000   1.0000   1.0000
     1.0000   1.0000   1.0000   1.0000   1.0000   1.0000   1.0000   0.0000
     0.0000   0.0000   0.0000   0.0000   0.0000   0.0000   0.0000   0.0000

          k =-0.0104-0.4871-0.0990 ( 10892 PWs)   bands (ev):

   -38.3186 -38.3142 -38.2740 -38.2729 -38.2548 -26.1415 -26.1341 -26.0874
   -26.0840 -26.0593 -12.6617  -9.3124  -5.0453  -3.5871  -3.2142  -0.1659
     1.0468   1.9837   3.7640   4.6177   5.3089   5.6391   6.1878   6.6444

     occupation numbers 
     1.0000   1.0000   1.0000   1.0000   1.0000   1.0000   1.0000   1.0000
     1.0000   1.0000   1.0000   1.0000   1.0000   1.0000   1.0000   0.0000
     0.0000   0.0000   0.0000   0.0000   0.0000   0.0000   0.0000   0.0000

          k =-0.0104-0.4631-0.0990 ( 10906 PWs)   bands (ev):

   -38.3186 -38.3143 -38.2740 -38.2729 -38.2549 -26.1414 -26.1343 -26.0873
   -26.0840 -26.0594 -12.7448  -9.2107  -5.0717  -3.5506  -3.1160  -0.2202
     1.1365   1.9874   3.8195   4.4103   5.1730   5.4239   6.2109   6.8225

     occupation numbers 
     1.0000   1.0000   1.0000   1.0000   1.0000   1.0000   1.0000   1.0000
     1.0000   1.0000   1.0000   1.0000   1.0000   1.0000   1.0000   0.0000
     0.0000   0.0000   0.0000   0.0000   0.0000   0.0000   0.0000   0.0000

          k =-0.0104-0.4390-0.0990 ( 10920 PWs)   bands (ev):

   -38.3186 -38.3145 -38.2739 -38.2728 -38.2550 -26.1413 -26.1345 -26.0871
   -26.0839 -26.0595 -12.8381  -9.0983  -5.0895  -3.5057  -3.0092  -0.2729
     1.2368   1.9903   3.8725   4.2127   5.0448   5.2217   6.1987   6.8040

     occupation numbers 
     1.0000   1.0000   1.0000   1.0000   1.0000   1.0000   1.0000   1.0000
     1.0000   1.0000   1.0000   1.0000   1.0000   1.0000   1.0000   0.0000
     0.0000   0.0000   0.0000   0.0000   0.0000   0.0000   0.0000   0.0000

          k =-0.0104-0.4150-0.0990 ( 10932 PWs)   bands (ev):

   -38.3186 -38.3148 -38.2738 -38.2728 -38.2551 -26.1412 -26.1348 -26.0869
   -26.0839 -26.0597 -12.9379  -8.9812  -5.0930  -3.4528  -2.8992  -0.3191
     1.3444   1.9916   3.9108   4.0268   4.9300   5.0394   6.1473   6.6435

     occupation numbers 
     1.0000   1.0000   1.0000   1.0000   1.0000   1.0000   1.0000   1.0000
     1.0000   1.0000   1.0000   1.0000   1.0000   1.0000   1.0000   0.0000
     0.0000   0.0000   0.0000   0.0000   0.0000   0.0000   0.0000   0.0000

          k =-0.0104-0.3909-0.0990 ( 10938 PWs)   bands (ev):

   -38.3186 -38.3150 -38.2737 -38.2728 -38.2553 -26.1411 -26.1351 -26.0866
   -26.0838 -26.0598 -13.0412  -8.8648  -5.0771  -3.3922  -2.7912  -0.3542
     1.4557   1.9899   3.8473   3.9282   4.8034   4.9123   6.0640   6.4664

     occupation numbers 
     1.0000   1.0000   1.0000   1.0000   1.0000   1.0000   1.0000   1.0000
     1.0000   1.0000   1.0000   1.0000   1.0000   1.0000   1.0000   0.0000
     0.0000   0.0000   0.0000   0.0000   0.0000   0.0000   0.0000   0.0000

          k =-0.0104-0.3669-0.0990 ( 10946 PWs)   bands (ev):

   -38.3186 -38.3153 -38.2736 -38.2728 -38.2554 -26.1410 -26.1355 -26.0864
   -26.0838 -26.0600 -13.1456  -8.7541  -5.0378  -3.3242  -2.6899  -0.3742
     1.5660   1.9842   3.6867   3.9053   4.6473   4.8614   5.9616   6.3022

     occupation numbers 
     1.0000   1.0000   1.0000   1.0000   1.0000   1.0000   1.0000   1.0000
     1.0000   1.0000   1.0000   1.0000   1.0000   1.0000   1.0000   0.0000
     0.0000   0.0000   0.0000   0.0000   0.0000   0.0000   0.0000   0.0000

          k =-0.0104-0.3428-0.0990 ( 10954 PWs)   bands (ev):

   -38.3186 -38.3156 -38.2735 -38.2727 -38.2556 -26.1409 -26.1358 -26.0861
   -26.0837 -26.0602 -13.2491  -8.6533  -4.9715  -3.2495  -2.5994  -0.3755
     1.6687   1.9730   3.5394   3.8503   4.4925   4.8471   5.8474   6.1641

     occupation numbers 
     1.0000   1.0000   1.0000   1.0000   1.0000   1.0000   1.0000   1.0000
     1.0000   1.0000   1.0000   1.0000   1.0000   1.0000   1.0000   0.0000
     0.0000   0.0000   0.0000   0.0000   0.0000   0.0000   0.0000   0.0000

          k =-0.0104-0.3187-0.0990 ( 10950 PWs)   bands (ev):

   -38.3186 -38.3159 -38.2734 -38.2727 -38.2557 -26.1407 -26.1362 -26.0858
   -26.0836 -26.0604 -13.3499  -8.5654  -4.8763  -3.1687  -2.5231  -0.3552
     1.7549   1.9555   3.4085   3.7708   4.3483   4.8416   5.7239   6.0673

     occupation numbers 
     1.0000   1.0000   1.0000   1.0000   1.0000   1.0000   1.0000   1.0000
     1.0000   1.0000   1.0000   1.0000   1.0000   1.0000   1.0000   0.0000
     0.0000   0.0000   0.0000   0.0000   0.0000   0.0000   0.0000   0.0000

          k =-0.0104-0.2947-0.0990 ( 10944 PWs)   bands (ev):

   -38.3186 -38.3162 -38.2733 -38.2727 -38.2559 -26.1406 -26.1366 -26.0855
   -26.0836 -26.0607 -13.4469  -8.4920  -4.7513  -3.0824  -2.4631  -0.3120
     1.8120   1.9326   3.2960   3.6764   4.2173   4.8245   5.5993   6.0170

     occupation numbers 
     1.0000   1.0000   1.0000   1.0000   1.0000   1.0000   1.0000   1.0000
     1.0000   1.0000   1.0000   1.0000   1.0000   1.0000   1.0000   0.0000
     0.0000   0.0000   0.0000   0.0000   0.0000   0.0000   0.0000   0.0000

          k =-0.0104-0.2706-0.0990 ( 10962 PWs)   bands (ev):

   -38.3187 -38.3165 -38.2732 -38.2727 -38.2561 -26.1405 -26.1370 -26.0852
   -26.0835 -26.0609 -13.5389  -8.4337  -4.5971  -2.9917  -2.4197  -0.2466
     1.8244   1.9076   3.2023   3.5741   4.1003   4.7875   5.4893   5.9736

     occupation numbers 
     1.0000   1.0000   1.0000   1.0000   1.0000   1.0000   1.0000   1.0000
     1.0000   1.0000   1.0000   1.0000   1.0000   1.0000   1.0000   0.0000
     0.0000   0.0000   0.0000   0.0000   0.0000   0.0000   0.0000   0.0000

          k =-0.0104-0.2466-0.0990 ( 10968 PWs)   bands (ev):

   -38.3187 -38.3168 -38.2731 -38.2726 -38.2562 -26.1404 -26.1374 -26.0849
   -26.0834 -26.0611 -13.6252  -8.3895  -4.4159  -2.8975  -2.3919  -0.1617
     1.7887   1.8755   3.1242   3.4686   3.9965   4.7383   5.4080   5.8646

     occupation numbers 
     1.0000   1.0000   1.0000   1.0000   1.0000   1.0000   1.0000   1.0000
     1.0000   1.0000   1.0000   1.0000   1.0000   1.0000   1.0000   0.0000
     0.0000   0.0000   0.0000   0.0000   0.0000   0.0000   0.0000   0.0000

          k =-0.0104-0.2225-0.0990 ( 10984 PWs)   bands (ev):

   -38.3187 -38.3171 -38.2730 -38.2726 -38.2564 -26.1403 -26.1378 -26.0846
   -26.0834 -26.0613 -13.7050  -8.3580  -4.2105  -2.8012  -2.3772  -0.0623
     1.7177   1.8225   3.0549   3.3645   3.9034   4.6911   5.3643   5.7454

     occupation numbers 
     1.0000   1.0000   1.0000   1.0000   1.0000   1.0000   1.0000   1.0000
     1.0000   1.0000   1.0000   1.0000   1.0000   1.0000   1.0000   0.0000
     0.0000   0.0000   0.0000   0.0000   0.0000   0.0000   0.0000   0.0000

          k =-0.0104-0.1985-0.0990 ( 10994 PWs)   bands (ev):

   -38.3187 -38.3174 -38.2729 -38.2726 -38.2566 -26.1401 -26.1381 -26.0843
   -26.0833 -26.0615 -13.7778  -8.3370  -3.9851  -2.7044  -2.3724   0.0441
     1.6152   1.7522   2.9865   3.2669   3.8176   4.6531   5.3634   5.6443

     occupation numbers 
     1.0000   1.0000   1.0000   1.0000   1.0000   1.0000   1.0000   1.0000
     1.0000   1.0000   1.0000   1.0000   1.0000   1.0000   1.0000   0.0000
     0.0000   0.0000   0.0000   0.0000   0.0000   0.0000   0.0000   0.0000

          k =-0.0104-0.1744-0.0990 ( 10986 PWs)   bands (ev):

   -38.3187 -38.3177 -38.2728 -38.2726 -38.2567 -26.1400 -26.1384 -26.0841
   -26.0833 -26.0617 -13.8432  -8.3244  -3.7443  -2.6088  -2.3745   0.1465
     1.4866   1.6749   2.9155   3.1800   3.7380   4.6204   5.3933   5.5823

     occupation numbers 
     1.0000   1.0000   1.0000   1.0000   1.0000   1.0000   1.0000   1.0000
     1.0000   1.0000   1.0000   1.0000   1.0000   1.0000   1.0000   0.0000
     0.0000   0.0000   0.0000   0.0000   0.0000   0.0000   0.0000   0.0000

          k =-0.0104-0.1504-0.0990 ( 10990 PWs)   bands (ev):

   -38.3187 -38.3179 -38.2727 -38.2725 -38.2568 -26.1400 -26.1387 -26.0838
   -26.0832 -26.0618 -13.9007  -8.3179  -3.4936  -2.5168  -2.3800   0.2276
     1.3509   1.5957   2.8437   3.1053   3.6654   4.5868   5.3881   5.6236

     occupation numbers 
     1.0000   1.0000   1.0000   1.0000   1.0000   1.0000   1.0000   1.0000
     1.0000   1.0000   1.0000   1.0000   1.0000   1.0000   1.0000   0.0000
     0.0000   0.0000   0.0000   0.0000   0.0000   0.0000   0.0000   0.0000

          k =-0.0104-0.1263-0.0990 ( 11010 PWs)   bands (ev):

   -38.3187 -38.3182 -38.2727 -38.2725 -38.2569 -26.1399 -26.1390 -26.0836
   -26.0832 -26.0620 -13.9502  -8.3156  -3.2402  -2.4312  -2.3852   0.2611
     1.2394   1.5180   2.7756   3.0421   3.6016   4.5500   5.3405   5.7631

     occupation numbers 
     1.0000   1.0000   1.0000   1.0000   1.0000   1.0000   1.0000   1.0000
     1.0000   1.0000   1.0000   1.0000   1.0000   1.0000   1.0000   0.0000
     0.0000   0.0000   0.0000   0.0000   0.0000   0.0000   0.0000   0.0000

          k =-0.0104-0.1022-0.0990 ( 11008 PWs)   bands (ev):

   -38.3187 -38.3183 -38.2726 -38.2725 -38.2570 -26.1398 -26.1392 -26.0834
   -26.0831 -26.0621 -13.9914  -8.3160  -2.9946  -2.3884  -2.3518   0.2212
     1.1840   1.4454   2.7158   2.9892   3.5477   4.5117   5.2908   5.9324

     occupation numbers 
     1.0000   1.0000   1.0000   1.0000   1.0000   1.0000   1.0000   1.0000
     1.0000   1.0000   1.0000   1.0000   1.0000   1.0000   1.0000   0.0000
     0.0000   0.0000   0.0000   0.0000   0.0000   0.0000   0.0000   0.0000

          k =-0.0104-0.0782-0.0990 ( 11024 PWs)   bands (ev):

   -38.3187 -38.3185 -38.2725 -38.2725 -38.2571 -26.1398 -26.1394 -26.0833
   -26.0831 -26.0622 -14.0241  -8.3177  -2.7751  -2.3758  -2.2867   0.1124
     1.1876   1.3818   2.6671   2.9460   3.5048   4.4751   5.2493   5.9951

     occupation numbers 
     1.0000   1.0000   1.0000   1.0000   1.0000   1.0000   1.0000   1.0000
     1.0000   1.0000   1.0000   1.0000   1.0000   1.0000   1.0000   0.0000
     0.0000   0.0000   0.0000   0.0000   0.0000   0.0000   0.0000   0.0000

          k =-0.0104-0.0541-0.0990 ( 11036 PWs)   bands (ev):

   -38.3187 -38.3186 -38.2725 -38.2725 -38.2572 -26.1397 -26.1395 -26.0832
   -26.0831 -26.0623 -14.0482  -8.3197  -2.6173  -2.3302  -2.2356  -0.0263
     1.2222   1.3312   2.6308   2.9128   3.4731   4.4437   5.2181   5.9111

     occupation numbers 
     1.0000   1.0000   1.0000   1.0000   1.0000   1.0000   1.0000   1.0000
     1.0000   1.0000   1.0000   1.0000   1.0000   1.0000   1.0000   0.0000
     0.0000   0.0000   0.0000   0.0000   0.0000   0.0000   0.0000   0.0000

          k =-0.0104-0.0301-0.0990 ( 11022 PWs)   bands (ev):

   -38.3187 -38.3187 -38.2725 -38.2725 -38.2572 -26.1397 -26.1396 -26.0831
   -26.0831 -26.0623 -14.0635  -8.3214  -2.5464  -2.2486  -2.2016  -0.1474
     1.2579   1.2971   2.6076   2.8906   3.4528   4.4213   5.1981   5.8367

     occupation numbers 
     1.0000   1.0000   1.0000   1.0000   1.0000   1.0000   1.0000   1.0000
     1.0000   1.0000   1.0000   1.0000   1.0000   1.0000   1.0000   0.0000
     0.0000   0.0000   0.0000   0.0000   0.0000   0.0000   0.0000   0.0000

          k =-0.0104-0.0060-0.0990 ( 11038 PWs)   bands (ev):

   -38.3187 -38.3187 -38.2725 -38.2725 -38.2572 -26.1397 -26.1397 -26.0831
   -26.0831 -26.0624 -14.0701  -8.3221  -2.5274  -2.1944  -2.1867  -0.2092
     1.2763   1.2820   2.5977   2.8809   3.4442   4.4110   5.1894   5.8024

     occupation numbers 
     1.0000   1.0000   1.0000   1.0000   1.0000   1.0000   1.0000   1.0000
     1.0000   1.0000   1.0000   1.0000   1.0000   1.0000   1.0000   0.0000
     0.0000   0.0000   0.0000   0.0000   0.0000   0.0000   0.0000   0.0000

     highest occupied, lowest unoccupied level (ev):    -2.1867   -0.3831

     Writing output data file ./work/GeTe-mono.save/
 
     init_run     :      0.29s CPU      0.30s WALL (       1 calls)
     electrons    :   1132.37s CPU   1264.17s WALL (       1 calls)

     Called by init_run:
     wfcinit      :      0.00s CPU      0.00s WALL (       1 calls)
     wfcinit:atom :      0.03s CPU      0.04s WALL (    2304 calls)
     wfcinit:wfcr :     19.64s CPU     23.45s WALL (    2304 calls)
     potinit      :      0.03s CPU      0.04s WALL (       1 calls)
     hinit0       :      0.06s CPU      0.07s WALL (       1 calls)

     Called by electrons:
     c_bands      :   1132.30s CPU   1264.08s WALL (       1 calls)
     v_of_rho     :      0.03s CPU      0.03s WALL (       1 calls)
     v_h          :      0.00s CPU      0.00s WALL (       1 calls)
     v_xc         :      0.02s CPU      0.03s WALL (       1 calls)

     Called by c_bands:
     init_us_2    :      0.43s CPU      0.58s WALL (    2304 calls)
     cegterg      :   1104.29s CPU   1230.37s WALL (    8797 calls)

     Called by sum_band:

     Called by *egterg:
     cdiaghg      :    153.90s CPU    166.55s WALL (  158856 calls)
     cegterg:over :     52.14s CPU     58.67s WALL (  156552 calls)
     cegterg:upda :     18.28s CPU     19.59s WALL (  156552 calls)
     cegterg:last :     31.54s CPU     33.56s WALL (   96907 calls)
     h_psi        :    833.08s CPU    938.92s WALL (  167653 calls)
     g_psi        :      5.69s CPU      5.69s WALL (  156552 calls)

     Called by h_psi:
     h_psi:calbec :     29.20s CPU     33.49s WALL (  167653 calls)
     vloc_psi     :    784.94s CPU    883.63s WALL (  167653 calls)
     add_vuspsi   :     15.48s CPU     17.86s WALL (  167653 calls)

     General routines
     calbec       :     28.70s CPU     32.98s WALL (  167653 calls)
     fft          :      0.01s CPU      0.02s WALL (      11 calls)
     ffts         :      0.00s CPU      0.00s WALL (       1 calls)
     fftw         :    719.08s CPU    810.37s WALL ( 4812402 calls)
     interpolate  :      0.00s CPU      0.00s WALL (       1 calls)
     davcio       :      1.66s CPU      2.61s WALL (    4608 calls)
 
     Parallel routines
     fft_scatt_xy :     82.01s CPU     90.67s WALL ( 4812414 calls)
     fft_scatt_yz :    377.21s CPU    429.31s WALL ( 4812414 calls)
 
     PWSCF        :  19m 3.87s CPU  21m28.82s WALL

 
   This run was terminated on:   0:16:44  13Sep2021            

=------------------------------------------------------------------------------=
   JOB DONE.
=------------------------------------------------------------------------------=
