
     Program PWSCF v.6.7MaX starts on 12Sep2021 at 23:54:43 

     This program is part of the open-source Quantum ESPRESSO suite
     for quantum simulation of materials; please cite
         "P. Giannozzi et al., J. Phys.:Condens. Matter 21 395502 (2009);
         "P. Giannozzi et al., J. Phys.:Condens. Matter 29 465901 (2017);
          URL http://www.quantum-espresso.org", 
     in publications or presentations arising from this work. More details at
     http://www.quantum-espresso.org/quote

     Parallel version (MPI), running on    20 processors

     MPI processes distributed on     1 nodes
     R & G space division:  proc/nbgrp/npool/nimage =      20
     Waiting for input...
     Reading input from standard input

     Current dimensions of program PWSCF are:
     Max number of different atomic species (ntypx) = 10
     Max number of k-points (npk) =  40000
     Max angular momentum in pseudopotentials (lmaxx) =  3
     Message from routine read_pp_mesh:
     mesh size missing, using the one in header
     Message from routine read_pp_mesh:
     mesh size missing, using the one in header

     Subspace diagonalization in iterative solution of the eigenvalue problem:
     a serial algorithm will be used

     Message from routine setup:
     no reason to have ecutrho>4*ecutwfc
     Message from routine setup:
     using ibrav=0 with symmetry is DISCOURAGED, use correct ibrav instead
 
     Parallelization info
     --------------------
     sticks:   dense  smooth     PW     G-vecs:    dense   smooth      PW
     Min         116      38     12                22746     4364     748
     Max         117      39     13                22761     4379     765
     Sum        2335     769    241               455125    87447   15071
 


     bravais-lattice index     =            0
     lattice parameter (alat)  =       7.4847  a.u.
     unit-cell volume          =    1833.6240 (a.u.)^3
     number of atoms/cell      =            2
     number of atomic types    =            2
     number of electrons       =        30.00
     number of Kohn-Sham states=           24
     kinetic-energy cutoff     =      50.0000  Ry
     charge density cutoff     =     600.0000  Ry
     scf convergence threshold =      1.0E-09
     mixing beta               =       0.7000
     number of iterations used =            8  plain     mixing
     Exchange-correlation= PBE
                           (   1   4   3   4   0   0   0)

     celldm(1)=   7.484717  celldm(2)=   0.000000  celldm(3)=   0.000000
     celldm(4)=   0.000000  celldm(5)=   0.000000  celldm(6)=   0.000000

     crystal axes: (cart. coord. in units of alat)
               a(1) = (   1.000000   0.000000   0.000000 )  
               a(2) = (   0.500000   0.866025   0.000000 )  
               a(3) = (   0.000000   0.000000   5.049559 )  

     reciprocal axes: (cart. coord. in units 2 pi/alat)
               b(1) = (  1.000000 -0.577350  0.000000 )  
               b(2) = (  0.000000  1.154701  0.000000 )  
               b(3) = (  0.000000  0.000000  0.198037 )  


     PseudoPot. # 1 for Ge read from file:
     ../../pseudo/Ge_ONCV_PBE-1.2.upf
     MD5 check sum: 9f45083245c564cb2163622d60d05ca9
     Pseudo is Norm-conserving, Zval = 14.0
     Generated using ONCVPSP code by D. R. Hamann
     Using radial grid of  602 points,  6 beta functions with: 
                l(1) =   0
                l(2) =   0
                l(3) =   1
                l(4) =   1
                l(5) =   2
                l(6) =   2

     PseudoPot. # 2 for Te read from file:
     ../../pseudo/Te_ONCV_PBE-1.2.upf
     MD5 check sum: dd4de4dac1e38587f63aaf3700bb29d3
     Pseudo is Norm-conserving, Zval = 16.0
     Generated using ONCVPSP code by D. R. Hamann
     Using radial grid of  602 points,  6 beta functions with: 
                l(1) =   0
                l(2) =   0
                l(3) =   1
                l(4) =   1
                l(5) =   2
                l(6) =   2

     atomic species   valence    mass     pseudopotential
        Ge            14.00    72.63000     Ge( 1.00)
        Te            16.00   127.60000     Te( 1.00)

      6 Sym. Ops. (no inversion) found



   Cartesian axes

     site n.     atom                  positions (alat units)
         1           Ge  tau(   1) = (   0.0000000   0.0000000   0.0000000  )
         2           Te  tau(   2) = (   1.0000000   0.5773503   0.3928870  )

     number of k points=    90
                       cart. coord. in units 2pi/alat
        k(    1) = (   0.0277778   0.0160375  -0.0990185), wk =   0.0123457
        k(    2) = (   0.0277778   0.0801875  -0.0990185), wk =   0.0246914
        k(    3) = (   0.0277778   0.1443376  -0.0990185), wk =   0.0246914
        k(    4) = (   0.0277778   0.2084876  -0.0990185), wk =   0.0246914
        k(    5) = (   0.0277778   0.2726376  -0.0990185), wk =   0.0246914
        k(    6) = (   0.0277778   0.3367877  -0.0990185), wk =   0.0246914
        k(    7) = (   0.0277778   0.4009377  -0.0990185), wk =   0.0246914
        k(    8) = (   0.0277778   0.4650877  -0.0990185), wk =   0.0246914
        k(    9) = (   0.0277778   0.5292377  -0.0990185), wk =   0.0246914
        k(   10) = (   0.0277778  -0.5613128  -0.0990185), wk =   0.0246914
        k(   11) = (   0.0277778  -0.4971627  -0.0990185), wk =   0.0246914
        k(   12) = (   0.0277778  -0.4330127  -0.0990185), wk =   0.0246914
        k(   13) = (   0.0277778  -0.3688627  -0.0990185), wk =   0.0246914
        k(   14) = (   0.0277778  -0.3047126  -0.0990185), wk =   0.0246914
        k(   15) = (   0.0277778  -0.2405626  -0.0990185), wk =   0.0246914
        k(   16) = (   0.0277778  -0.1764126  -0.0990185), wk =   0.0246914
        k(   17) = (   0.0277778  -0.1122626  -0.0990185), wk =   0.0246914
        k(   18) = (   0.0277778  -0.0481125  -0.0990185), wk =   0.0123457
        k(   19) = (   0.0833333   0.0481125  -0.0990185), wk =   0.0123457
        k(   20) = (   0.0833333   0.1122626  -0.0990185), wk =   0.0246914
        k(   21) = (   0.0833333   0.1764126  -0.0990185), wk =   0.0246914
        k(   22) = (   0.0833333   0.2405626  -0.0990185), wk =   0.0246914
        k(   23) = (   0.0833333   0.3047126  -0.0990185), wk =   0.0246914
        k(   24) = (   0.0833333   0.3688627  -0.0990185), wk =   0.0246914
        k(   25) = (   0.0833333   0.4330127  -0.0990185), wk =   0.0246914
        k(   26) = (   0.0833333   0.4971627  -0.0990185), wk =   0.0246914
        k(   27) = (   0.0833333  -0.5933878  -0.0990185), wk =   0.0246914
        k(   28) = (   0.0833333  -0.5292377  -0.0990185), wk =   0.0246914
        k(   29) = (   0.0833333  -0.4650877  -0.0990185), wk =   0.0246914
        k(   30) = (   0.0833333  -0.4009377  -0.0990185), wk =   0.0246914
        k(   31) = (   0.0833333  -0.3367877  -0.0990185), wk =   0.0246914
        k(   32) = (   0.0833333  -0.2726376  -0.0990185), wk =   0.0246914
        k(   33) = (   0.0833333  -0.2084876  -0.0990185), wk =   0.0246914
        k(   34) = (   0.0833333  -0.1443376  -0.0990185), wk =   0.0123457
        k(   35) = (   0.1388889   0.0801875  -0.0990185), wk =   0.0123457
        k(   36) = (   0.1388889   0.1443376  -0.0990185), wk =   0.0246914
        k(   37) = (   0.1388889   0.2084876  -0.0990185), wk =   0.0246914
        k(   38) = (   0.1388889   0.2726376  -0.0990185), wk =   0.0246914
        k(   39) = (   0.1388889   0.3367877  -0.0990185), wk =   0.0246914
        k(   40) = (   0.1388889   0.4009377  -0.0990185), wk =   0.0246914
        k(   41) = (   0.1388889   0.4650877  -0.0990185), wk =   0.0246914
        k(   42) = (   0.1388889  -0.6254628  -0.0990185), wk =   0.0246914
        k(   43) = (   0.1388889  -0.5613128  -0.0990185), wk =   0.0246914
        k(   44) = (   0.1388889  -0.4971627  -0.0990185), wk =   0.0246914
        k(   45) = (   0.1388889  -0.4330127  -0.0990185), wk =   0.0246914
        k(   46) = (   0.1388889  -0.3688627  -0.0990185), wk =   0.0246914
        k(   47) = (   0.1388889  -0.3047126  -0.0990185), wk =   0.0246914
        k(   48) = (   0.1388889  -0.2405626  -0.0990185), wk =   0.0123457
        k(   49) = (   0.1944444   0.1122626  -0.0990185), wk =   0.0123457
        k(   50) = (   0.1944444   0.1764126  -0.0990185), wk =   0.0246914
        k(   51) = (   0.1944444   0.2405626  -0.0990185), wk =   0.0246914
        k(   52) = (   0.1944444   0.3047126  -0.0990185), wk =   0.0246914
        k(   53) = (   0.1944444   0.3688627  -0.0990185), wk =   0.0246914
        k(   54) = (   0.1944444   0.4330127  -0.0990185), wk =   0.0246914
        k(   55) = (   0.1944444  -0.6575378  -0.0990185), wk =   0.0246914
        k(   56) = (   0.1944444  -0.5933878  -0.0990185), wk =   0.0246914
        k(   57) = (   0.1944444  -0.5292377  -0.0990185), wk =   0.0246914
        k(   58) = (   0.1944444  -0.4650877  -0.0990185), wk =   0.0246914
        k(   59) = (   0.1944444  -0.4009377  -0.0990185), wk =   0.0246914
        k(   60) = (   0.1944444  -0.3367877  -0.0990185), wk =   0.0123457
        k(   61) = (   0.2500000   0.1443376  -0.0990185), wk =   0.0123457
        k(   62) = (   0.2500000   0.2084876  -0.0990185), wk =   0.0246914
        k(   63) = (   0.2500000   0.2726376  -0.0990185), wk =   0.0246914
        k(   64) = (   0.2500000   0.3367877  -0.0990185), wk =   0.0246914
        k(   65) = (   0.2500000   0.4009377  -0.0990185), wk =   0.0246914
        k(   66) = (   0.2500000  -0.6896128  -0.0990185), wk =   0.0246914
        k(   67) = (   0.2500000  -0.6254628  -0.0990185), wk =   0.0246914
        k(   68) = (   0.2500000  -0.5613128  -0.0990185), wk =   0.0246914
        k(   69) = (   0.2500000  -0.4971627  -0.0990185), wk =   0.0246914
        k(   70) = (   0.2500000  -0.4330127  -0.0990185), wk =   0.0123457
        k(   71) = (   0.3055556   0.1764126  -0.0990185), wk =   0.0123457
        k(   72) = (   0.3055556   0.2405626  -0.0990185), wk =   0.0246914
        k(   73) = (   0.3055556   0.3047126  -0.0990185), wk =   0.0246914
        k(   74) = (   0.3055556   0.3688627  -0.0990185), wk =   0.0246914
        k(   75) = (   0.3055556  -0.7216878  -0.0990185), wk =   0.0246914
        k(   76) = (   0.3055556  -0.6575378  -0.0990185), wk =   0.0246914
        k(   77) = (   0.3055556  -0.5933878  -0.0990185), wk =   0.0246914
        k(   78) = (   0.3055556  -0.5292377  -0.0990185), wk =   0.0123457
        k(   79) = (   0.3611111   0.2084876  -0.0990185), wk =   0.0123457
        k(   80) = (   0.3611111   0.2726376  -0.0990185), wk =   0.0246914
        k(   81) = (   0.3611111   0.3367877  -0.0990185), wk =   0.0246914
        k(   82) = (   0.3611111  -0.7537629  -0.0990185), wk =   0.0246914
        k(   83) = (   0.3611111  -0.6896128  -0.0990185), wk =   0.0246914
        k(   84) = (   0.3611111  -0.6254628  -0.0990185), wk =   0.0123457
        k(   85) = (   0.4166667   0.2405626  -0.0990185), wk =   0.0123457
        k(   86) = (   0.4166667   0.3047126  -0.0990185), wk =   0.0246914
        k(   87) = (   0.4166667  -0.7858379  -0.0990185), wk =   0.0246914
        k(   88) = (   0.4166667  -0.7216878  -0.0990185), wk =   0.0123457
        k(   89) = (   0.4722222   0.2726376  -0.0990185), wk =   0.0123457
        k(   90) = (   0.4722222  -0.8179129  -0.0990185), wk =   0.0123457

     Dense  grid:   455125 G-vectors     FFT dimensions: (  60,  60, 300)

     Smooth grid:    87447 G-vectors     FFT dimensions: (  36,  36, 180)

     Estimated max dynamical RAM per process >      37.10 MB

     Estimated total dynamical RAM >     742.02 MB

     Initial potential from superposition of free atoms

     starting charge   29.90735, renormalised to   30.00000

     negative rho (up, down):  3.472E-04 0.000E+00
     Starting wfcs are random

     total cpu time spent up to now is        1.1 secs

     Self-consistent Calculation

     iteration #  1     ecut=    50.00 Ry     beta= 0.70
     Davidson diagonalization with overlap
     ethr =  1.00E-02,  avg # of iterations = 10.7

     Threshold (ethr) on eigenvalues was too large:
     Diagonalizing with lowered threshold

     Davidson diagonalization with overlap
     ethr =  7.86E-05,  avg # of iterations =  7.6

     negative rho (up, down):  2.522E-05 0.000E+00

     total cpu time spent up to now is       12.2 secs

     total energy              =    -316.35186026 Ry
     estimated scf accuracy    <       0.01826677 Ry

     iteration #  2     ecut=    50.00 Ry     beta= 0.70
     Davidson diagonalization with overlap
     ethr =  6.09E-05,  avg # of iterations =  2.7

     negative rho (up, down):  8.411E-06 0.000E+00

     total cpu time spent up to now is       14.6 secs

     total energy              =    -316.35395843 Ry
     estimated scf accuracy    <       0.00356095 Ry

     iteration #  3     ecut=    50.00 Ry     beta= 0.70
     Davidson diagonalization with overlap
     ethr =  1.19E-05,  avg # of iterations =  4.4

     negative rho (up, down):  4.931E-06 0.000E+00

     total cpu time spent up to now is       17.4 secs

     total energy              =    -316.35414696 Ry
     estimated scf accuracy    <       0.00315298 Ry

     iteration #  4     ecut=    50.00 Ry     beta= 0.70
     Davidson diagonalization with overlap
     ethr =  1.05E-05,  avg # of iterations =  4.0

     negative rho (up, down):  1.424E-06 0.000E+00

     total cpu time spent up to now is       20.0 secs

     total energy              =    -316.35454420 Ry
     estimated scf accuracy    <       0.00494653 Ry

     iteration #  5     ecut=    50.00 Ry     beta= 0.70
     Davidson diagonalization with overlap
     ethr =  1.05E-05,  avg # of iterations =  2.1

     negative rho (up, down):  3.107E-08 0.000E+00

     total cpu time spent up to now is       22.0 secs

     total energy              =    -316.35515462 Ry
     estimated scf accuracy    <       0.00000790 Ry

     iteration #  6     ecut=    50.00 Ry     beta= 0.70
     Davidson diagonalization with overlap
     ethr =  2.63E-08,  avg # of iterations =  4.7

     negative rho (up, down):  1.784E-08 0.000E+00

     total cpu time spent up to now is       24.7 secs

     total energy              =    -316.35515766 Ry
     estimated scf accuracy    <       0.00000061 Ry

     iteration #  7     ecut=    50.00 Ry     beta= 0.70
     Davidson diagonalization with overlap
     ethr =  2.03E-09,  avg # of iterations =  2.1

     total cpu time spent up to now is       26.8 secs

     total energy              =    -316.35515780 Ry
     estimated scf accuracy    <       0.00000003 Ry

     iteration #  8     ecut=    50.00 Ry     beta= 0.70
     Davidson diagonalization with overlap
     ethr =  1.15E-10,  avg # of iterations =  2.6

     total cpu time spent up to now is       29.1 secs

     total energy              =    -316.35515781 Ry
     estimated scf accuracy    <          3.4E-09 Ry

     iteration #  9     ecut=    50.00 Ry     beta= 0.70
     Davidson diagonalization with overlap
     ethr =  1.13E-11,  avg # of iterations =  2.5

     total cpu time spent up to now is       31.3 secs

     End of self-consistent calculation

          k = 0.0278 0.0160-0.0990 ( 11028 PWs)   bands (ev):

   -38.3187 -38.3187 -38.2725 -38.2725 -38.2572 -26.1396 -26.1395 -26.0830
   -26.0830 -26.0623 -14.0634  -8.3213  -2.5468  -2.2495  -2.2017  -0.1463
     1.2580   1.2971   2.6078   2.8908   3.4531   4.4215   5.1983   5.8373

          k = 0.0278 0.0802-0.0990 ( 11022 PWs)   bands (ev):

   -38.3187 -38.3185 -38.2726 -38.2725 -38.2571 -26.1397 -26.1393 -26.0832
   -26.0830 -26.0621 -14.0167  -8.3172  -2.8239  -2.3809  -2.3056   0.1511
     1.1656   1.4082   2.6784   2.9558   3.5146   4.4839   5.2589   6.0077

          k = 0.0278 0.1443-0.0990 ( 11008 PWs)   bands (ev):

   -38.3187 -38.3180 -38.2727 -38.2725 -38.2569 -26.1399 -26.1387 -26.0837
   -26.0831 -26.0618 -13.9089  -8.3172  -3.4479  -2.5205  -2.3768   0.2724
     1.2612   1.6239   2.8342   3.0936   3.6552   4.5801   5.3853   5.6424

          k = 0.0278 0.2085-0.0990 ( 10986 PWs)   bands (ev):

   -38.3187 -38.3173 -38.2730 -38.2726 -38.2565 -26.1401 -26.1379 -26.0844
   -26.0833 -26.0613 -13.7435  -8.3457  -4.0877  -2.7787  -2.3683   0.0355
     1.5747   1.8514   3.0238   3.3094   3.8594   4.6627   5.3643   5.6786

          k = 0.0278 0.2726-0.0990 ( 10966 PWs)   bands (ev):

   -38.3187 -38.3165 -38.2732 -38.2727 -38.2561 -26.1404 -26.1369 -26.0852
   -26.0834 -26.0608 -13.5269  -8.4399  -4.6106  -3.0406  -2.4153  -0.2154
     1.7716   1.9434   3.2180   3.5861   4.1168   4.7817   5.5020   5.9746

          k = 0.0278 0.3368-0.0990 ( 10950 PWs)   bands (ev):

   -38.3186 -38.3157 -38.2735 -38.2728 -38.2556 -26.1407 -26.1359 -26.0859
   -26.0836 -26.0602 -13.2702  -8.6323  -4.9466  -3.2761  -2.5671  -0.3364
     1.7010   1.9416   3.5131   3.8399   4.4623   4.8463   5.8209   6.1418

          k = 0.0278 0.4009-0.0990 ( 10926 PWs)   bands (ev):

   -38.3186 -38.3149 -38.2738 -38.2728 -38.2552 -26.1411 -26.1349 -26.0867
   -26.0838 -26.0597 -12.9938  -8.9147  -5.0818  -3.4669  -2.8196  -0.3069
     1.4207   1.9617   3.9158   3.9503   4.8665   4.9605   6.1108   6.5407

          k = 0.0278 0.4651-0.0990 ( 10912 PWs)   bands (ev):

   -38.3186 -38.3144 -38.2740 -38.2729 -38.2549 -26.1413 -26.1342 -26.0872
   -26.0839 -26.0593 -12.7337  -9.2206  -5.0671  -3.6012  -3.1068  -0.1808
     1.1351   1.9627   3.8278   4.4354   5.1906   5.4481   6.2281   6.8136

          k = 0.0278 0.5292-0.0990 ( 10900 PWs)   bands (ev):

   -38.3186 -38.3140 -38.2741 -38.2729 -38.2547 -26.1415 -26.1338 -26.0876
   -26.0840 -26.0590 -12.5489  -9.4476  -4.9966  -3.6718  -3.3325  -0.0439
     0.9257   1.9584   3.6946   5.0075   5.5307   6.0225   6.0586   6.3716

          k = 0.0278-0.5613-0.0990 ( 10910 PWs)   bands (ev):

   -38.3186 -38.3139 -38.2741 -38.2729 -38.2547 -26.1415 -26.1337 -26.0876
   -26.0840 -26.0590 -12.5070  -9.4995  -4.9747  -3.6842  -3.3871  -0.0062
     0.8753   1.9573   3.6622   5.2952   5.5547   5.8462   6.3190   6.3855

          k = 0.0278-0.4972-0.0990 ( 10904 PWs)   bands (ev):

   -38.3186 -38.3141 -38.2741 -38.2729 -38.2548 -26.1414 -26.1340 -26.0874
   -26.0840 -26.0591 -12.6274  -9.3508  -5.0319  -3.6446  -3.2342  -0.1073
     1.0163   1.9605   3.7536   4.7151   5.3737   5.7389   6.1835   6.5627

          k = 0.0278-0.4330-0.0990 ( 10916 PWs)   bands (ev):

   -38.3186 -38.3146 -38.2739 -38.2729 -38.2550 -26.1412 -26.1345 -26.0870
   -26.0839 -26.0595 -12.8586  -9.0707  -5.0880  -3.5417  -2.9644  -0.2511
     1.2726   1.9638   3.8974   4.1732   5.0201   5.1805   6.2031   6.7661

          k = 0.0278-0.3689-0.0990 ( 10946 PWs)   bands (ev):

   -38.3186 -38.3153 -38.2737 -38.2728 -38.2554 -26.1409 -26.1354 -26.0863
   -26.0837 -26.0599 -13.1327  -8.7651  -5.0375  -3.3780  -2.6839  -0.3383
     1.5692   1.9544   3.7073   3.9192   4.6671   4.8678   5.9769   6.3181

          k = 0.0278-0.3047-0.0990 ( 10962 PWs)   bands (ev):

   -38.3186 -38.3161 -38.2734 -38.2727 -38.2558 -26.1406 -26.1364 -26.0856
   -26.0835 -26.0605 -13.4026  -8.5229  -4.8044  -3.1630  -2.4766  -0.2957
     1.7818   1.9339   3.3489   3.7221   4.2774   4.8287   5.6531   6.0414

          k = 0.0278-0.2406-0.0990 ( 10976 PWs)   bands (ev):

   -38.3187 -38.3169 -38.2731 -38.2726 -38.2563 -26.1403 -26.1374 -26.0848
   -26.0834 -26.0611 -13.6411  -8.3821  -4.3692  -2.9114  -2.3811  -0.1008
     1.6951   1.9235   3.1150   3.4448   3.9795   4.7167   5.3990   5.8255

          k = 0.0278-0.1764-0.0990 ( 10992 PWs)   bands (ev):

   -38.3187 -38.3177 -38.2728 -38.2726 -38.2567 -26.1400 -26.1383 -26.0840
   -26.0832 -26.0616 -13.8331  -8.3258  -3.7763  -2.6466  -2.3695   0.1725
     1.4200   1.7438   2.9299   3.1907   3.7510   4.6222   5.3976   5.5787

          k = 0.0278-0.1123-0.0990 ( 11006 PWs)   bands (ev):

   -38.3187 -38.3183 -38.2726 -38.2725 -38.2570 -26.1398 -26.1390 -26.0834
   -26.0831 -26.0620 -13.9703  -8.3155  -3.1204  -2.4118  -2.3774   0.2742
     1.1631   1.5080   2.7474   3.0160   3.5755   4.5320   5.3175   5.8490

          k = 0.0278-0.0481-0.0990 ( 11044 PWs)   bands (ev):

   -38.3187 -38.3186 -38.2725 -38.2725 -38.2572 -26.1396 -26.1395 -26.0831
   -26.0830 -26.0622 -14.0478  -8.3197  -2.6190  -2.3309  -2.2374  -0.0230
     1.2183   1.3347   2.6314   2.9133   3.4737   4.4442   5.2187   5.9130

          k = 0.0833 0.0481-0.0990 ( 11012 PWs)   bands (ev):

   -38.3187 -38.3184 -38.2726 -38.2725 -38.2571 -26.1397 -26.1392 -26.0833
   -26.0831 -26.0621 -14.0011  -8.3164  -2.9315  -2.3865  -2.3320   0.1948
     1.1857   1.4233   2.7013   2.9765   3.5350   4.5015   5.2786   5.9696

          k = 0.0833 0.1123-0.0990 ( 11010 PWs)   bands (ev):

   -38.3187 -38.3181 -38.2727 -38.2725 -38.2569 -26.1398 -26.1388 -26.0836
   -26.0831 -26.0618 -13.9242  -8.3163  -3.3595  -2.5255  -2.3724   0.3631
     1.1108   1.6484   2.8157   3.0721   3.6358   4.5677   5.3750   5.6904

          k = 0.0833 0.1764-0.0990 ( 10986 PWs)   bands (ev):

   -38.3186 -38.3175 -38.2729 -38.2726 -38.2566 -26.1400 -26.1381 -26.0842
   -26.0833 -26.0614 -13.7880  -8.3336  -3.8956  -2.8394  -2.3508   0.3764
     1.1588   1.9298   3.0001   3.2311   3.8102   4.6125   5.4248   5.5519

          k = 0.0833 0.2406-0.0990 ( 10988 PWs)   bands (ev):

   -38.3186 -38.3168 -38.2731 -38.2727 -38.2562 -26.1402 -26.1373 -26.0849
   -26.0834 -26.0609 -13.5975  -8.3982  -4.4013  -3.1759  -2.3559   0.1701
     1.4020   2.0669   3.1928   3.4665   4.0439   4.6369   5.4394   5.7978

          k = 0.0833 0.3047-0.0990 ( 10956 PWs)   bands (ev):

   -38.3185 -38.3161 -38.2734 -38.2728 -38.2558 -26.1405 -26.1364 -26.0856
   -26.0836 -26.0604 -13.3611  -8.5450  -4.7836  -3.4772  -2.4358  -0.0104
     1.5946   1.9724   3.4258   3.7570   4.3431   4.7654   5.6788   6.1121

          k = 0.0833 0.3689-0.0990 ( 10924 PWs)   bands (ev):

   -38.3185 -38.3153 -38.2737 -38.2728 -38.2554 -26.1407 -26.1355 -26.0863
   -26.0838 -26.0599 -13.0938  -8.7866  -4.9957  -3.7148  -2.6210  -0.0632
     1.6231   1.7717   3.7760   3.9980   4.7259   4.8965   6.0238   6.2501

          k = 0.0833 0.4330-0.0990 ( 10926 PWs)   bands (ev):

   -38.3184 -38.3147 -38.2739 -38.2729 -38.2550 -26.1410 -26.1347 -26.0869
   -26.0840 -26.0594 -12.8229  -9.0854  -5.0539  -3.8701  -2.8888   0.0151
     1.3384   1.7817   4.0013   4.2481   5.0661   5.2412   6.2944   6.6138

          k = 0.0833 0.4972-0.0990 ( 10912 PWs)   bands (ev):

   -38.3184 -38.3143 -38.2740 -38.2730 -38.2548 -26.1411 -26.1342 -26.0874
   -26.0841 -26.0591 -12.5947  -9.3576  -5.0268  -3.9314  -3.1660   0.1736
     1.0436   1.8098   3.8540   4.7893   5.4461   5.7992   6.3039   6.6142

          k = 0.0833-0.5934-0.0990 ( 10908 PWs)   bands (ev):

   -38.3184 -38.3141 -38.2741 -38.2730 -38.2546 -26.1412 -26.1339 -26.0875
   -26.0841 -26.0590 -12.4761  -9.5018  -4.9959  -3.9256  -3.3371   0.3129
     0.8519   1.8259   3.7508   5.3947   5.6712   5.9058   6.3134   6.4458

          k = 0.0833-0.5292-0.0990 ( 10916 PWs)   bands (ev):

   -38.3184 -38.3141 -38.2741 -38.2730 -38.2547 -26.1412 -26.1340 -26.0875
   -26.0841 -26.0590 -12.5174  -9.4515  -5.0076  -3.9319  -3.2742   0.2562
     0.9256   1.8201   3.7877   5.0872   5.6381   6.0783   6.1248   6.4269

          k = 0.0833-0.4651-0.0990 ( 10924 PWs)   bands (ev):

   -38.3184 -38.3145 -38.2740 -38.2729 -38.2549 -26.1411 -26.1344 -26.0872
   -26.0840 -26.0592 -12.6996  -9.2312  -5.0456  -3.9124  -3.0322   0.0888
     1.1849   1.7966   3.9340   4.5081   5.2451   5.5087   6.3541   6.7397

          k = 0.0833-0.4009-0.0990 ( 10934 PWs)   bands (ev):

   -38.3185 -38.3150 -38.2738 -38.2729 -38.2552 -26.1409 -26.1351 -26.0867
   -26.0839 -26.0596 -12.9565  -8.9333  -5.0405  -3.8037  -2.7483  -0.0380
     1.4942   1.7673   3.9774   4.0567   4.9137   5.0148   6.1752   6.4281

          k = 0.0833-0.3368-0.0990 ( 10940 PWs)   bands (ev):

   -38.3185 -38.3157 -38.2735 -38.2728 -38.2556 -26.1406 -26.1359 -26.0860
   -26.0837 -26.0601 -13.2300  -8.6550  -4.9115  -3.6052  -2.5152  -0.0548
     1.6443   1.8595   3.5862   3.8937   4.5253   4.8343   5.8483   6.1498

          k = 0.0833-0.2726-0.0990 ( 10972 PWs)   bands (ev):

   -38.3186 -38.3165 -38.2733 -38.2727 -38.2560 -26.1403 -26.1368 -26.0852
   -26.0835 -26.0607 -13.4843  -8.4596  -4.6122  -3.3331  -2.3837   0.0674
     1.5118   2.0486   3.2970   3.6096   4.1833   4.6906   5.5386   5.9520

          k = 0.0833-0.2085-0.0990 ( 10978 PWs)   bands (ev):

   -38.3186 -38.3172 -38.2730 -38.2726 -38.2564 -26.1401 -26.1377 -26.0845
   -26.0833 -26.0612 -13.6991  -8.3577  -4.1589  -3.0095  -2.3470   0.2822
     1.2757   2.0242   3.0978   3.3384   3.9203   4.6171   5.3958   5.6640

          k = 0.0833-0.1443-0.0990 ( 11006 PWs)   bands (ev):

   -38.3187 -38.3178 -38.2728 -38.2726 -38.2568 -26.1399 -26.1385 -26.0839
   -26.0832 -26.0617 -13.8633  -8.3212  -3.6241  -2.6741  -2.3610   0.4107
     1.0955   1.7985   2.9027   3.1434   3.7146   4.5977   5.4477   5.5406

          k = 0.1389 0.0802-0.0990 ( 11000 PWs)   bands (ev):

   -38.3187 -38.3179 -38.2728 -38.2726 -38.2568 -26.1399 -26.1385 -26.0838
   -26.0832 -26.0617 -13.8785  -8.3199  -3.5965  -2.5497  -2.3784   0.1923
     1.4221   1.6156   2.8721   3.1342   3.6937   4.6011   5.3975   5.5916

          k = 0.1389 0.1443-0.0990 ( 10978 PWs)   bands (ev):

   -38.3187 -38.3175 -38.2729 -38.2726 -38.2566 -26.1400 -26.1380 -26.0842
   -26.0833 -26.0614 -13.7732  -8.3374  -3.9680  -2.8069  -2.3568   0.2120
     1.3466   1.9025   3.0060   3.2597   3.8265   4.6312   5.3902   5.6064

          k = 0.1389 0.2085-0.0990 ( 10976 PWs)   bands (ev):

   -38.3186 -38.3169 -38.2731 -38.2727 -38.2562 -26.1402 -26.1374 -26.0848
   -26.0834 -26.0610 -13.6117  -8.3904  -4.3401  -3.2316  -2.3449   0.3448
     1.2343   2.1008   3.2033   3.4263   4.0327   4.5854   5.4327   5.7530

          k = 0.1389 0.2726-0.0990 ( 10962 PWs)   bands (ev):

   -38.3184 -38.3163 -38.2733 -38.2728 -38.2558 -26.1403 -26.1366 -26.0854
   -26.0837 -26.0605 -13.4007  -8.5074  -4.6462  -3.6658  -2.3823   0.3605
     1.2644   2.1294   3.4438   3.6475   4.3115   4.5872   5.6161   6.0116

          k = 0.1389 0.3368-0.0990 ( 10950 PWs)   bands (ev):

   -38.3183 -38.3157 -38.2736 -38.2729 -38.2554 -26.1404 -26.1359 -26.0861
   -26.0839 -26.0600 -13.1516  -8.7075  -4.8508  -4.0150  -2.5046   0.3091
     1.3151   2.0300   3.7325   3.9476   4.6490   4.7896   5.8811   5.9902

          k = 0.1389 0.4009-0.0990 ( 10932 PWs)   bands (ev):

   -38.3182 -38.3151 -38.2738 -38.2730 -38.2551 -26.1405 -26.1352 -26.0867
   -26.0841 -26.0595 -12.8845  -8.9765  -4.9622  -4.2249  -2.7223   0.3116
     1.2842   1.8824   4.1010   4.2006   4.9948   5.1231   6.0012   6.2535

          k = 0.1389 0.4651-0.0990 ( 10938 PWs)   bands (ev):

   -38.3181 -38.3147 -38.2739 -38.2730 -38.2548 -26.1406 -26.1347 -26.0871
   -26.0843 -26.0592 -12.6347  -9.2574  -5.0289  -4.2664  -2.9995   0.3825
     1.1879   1.7717   4.1204   4.6417   5.3343   5.6259   6.2842   6.5784

          k = 0.1389-0.6255-0.0990 ( 10930 PWs)   bands (ev):

   -38.3180 -38.3144 -38.2740 -38.2731 -38.2546 -26.1407 -26.1344 -26.0874
   -26.0844 -26.0589 -12.4583  -9.4635  -5.0747  -4.1899  -3.2490   0.4715
     1.0845   1.7221   3.9846   5.2213   5.7648   6.1444   6.2497   6.3986

          k = 0.1389-0.5613-0.0990 ( 10928 PWs)   bands (ev):

   -38.3180 -38.3143 -38.2740 -38.2731 -38.2546 -26.1407 -26.1343 -26.0874
   -26.0844 -26.0589 -12.4185  -9.5105  -5.0852  -4.1561  -3.3163   0.4971
     1.0562   1.7141   3.9478   5.5345   5.8540   5.9880   6.2139   6.5673

          k = 0.1389-0.4972-0.0990 ( 10940 PWs)   bands (ev):

   -38.3180 -38.3145 -38.2740 -38.2731 -38.2547 -26.1407 -26.1345 -26.0873
   -26.0843 -26.0590 -12.5331  -9.3758  -5.0551  -4.2349  -3.1356   0.4295
     1.1322   1.7401   4.0488   4.9219   5.5453   5.9136   6.3131   6.6665

          k = 0.1389-0.4330-0.0990 ( 10928 PWs)   bands (ev):

   -38.3181 -38.3149 -38.2739 -38.2730 -38.2549 -26.1406 -26.1349 -26.0869
   -26.0842 -26.0593 -12.7544  -9.1204  -4.9983  -4.2664  -2.8576   0.3406
     1.2413   1.8192   4.1640   4.3869   5.1497   5.3595   6.1505   6.4191

          k = 0.1389-0.3689-0.0990 ( 10936 PWs)   bands (ev):

   -38.3182 -38.3154 -38.2737 -38.2729 -38.2553 -26.1405 -26.1355 -26.0864
   -26.0840 -26.0597 -13.0185  -8.8360  -4.9155  -4.1401  -2.6026   0.3006
     1.3103   1.9560   3.9123   4.0900   4.8321   4.9368   5.9204   6.0886

          k = 0.1389-0.3047-0.0990 ( 10944 PWs)   bands (ev):

   -38.3184 -38.3160 -38.2735 -38.2728 -38.2556 -26.1404 -26.1363 -26.0858
   -26.0838 -26.0602 -13.2799  -8.5969  -4.7619  -3.8549  -2.4312   0.3331
     1.2976   2.0918   3.5782   3.7918   4.4737   4.6659   5.7478   6.0603

          k = 0.1389-0.2406-0.0990 ( 10970 PWs)   bands (ev):

   -38.3185 -38.3166 -38.2732 -38.2727 -38.2560 -26.1402 -26.1370 -26.0851
   -26.0835 -26.0607 -13.5119  -8.4392  -4.5044  -3.4549  -2.3550   0.3711
     1.2345   2.1343   3.3196   3.5267   4.1636   4.5649   5.5079   5.8720

          k = 0.1944 0.1123-0.0990 ( 10970 PWs)   bands (ev):

   -38.3187 -38.3171 -38.2730 -38.2726 -38.2564 -26.1402 -26.1376 -26.0845
   -26.0833 -26.0612 -13.6994  -8.3600  -4.2277  -2.8031  -2.3789  -0.0771
     1.7571   1.7988   3.0592   3.3726   3.9098   4.6959   5.3653   5.7561

          k = 0.1944 0.1764-0.0990 ( 10986 PWs)   bands (ev):

   -38.3186 -38.3167 -38.2732 -38.2727 -38.2562 -26.1403 -26.1371 -26.0850
   -26.0834 -26.0609 -13.5691  -8.4145  -4.5000  -3.0972  -2.3796  -0.0436
     1.6065   2.0085   3.1936   3.5241   4.0704   4.7142   5.4595   5.8825

          k = 0.1944 0.2406-0.0990 ( 10950 PWs)   bands (ev):

   -38.3185 -38.3162 -38.2734 -38.2728 -38.2558 -26.1404 -26.1365 -26.0855
   -26.0836 -26.0605 -13.3874  -8.5199  -4.7005  -3.5925  -2.3995   0.2013
     1.4094   2.0688   3.4255   3.6992   4.3180   4.6653   5.6349   6.0518

          k = 0.1944 0.3047-0.0990 ( 10944 PWs)   bands (ev):

   -38.3182 -38.3157 -38.2735 -38.2729 -38.2555 -26.1403 -26.1360 -26.0860
   -26.0839 -26.0600 -13.1633  -8.6910  -4.7963  -4.1054  -2.4819   0.4466
     1.1813   2.1242   3.7517   3.8921   4.6482   4.7144   5.8610   5.9529

          k = 0.1944 0.3689-0.0990 ( 10944 PWs)   bands (ev):

   -38.3180 -38.3153 -38.2737 -38.2730 -38.2551 -26.1403 -26.1355 -26.0865
   -26.0842 -26.0596 -12.9121  -8.9232  -4.8156  -4.5061  -2.6457   0.5704
     1.0119   2.1676   4.1233   4.1740   4.9431   5.0647   5.6877   6.1466

          k = 0.1944 0.4330-0.0990 ( 10956 PWs)   bands (ev):

   -38.3177 -38.3150 -38.2738 -38.2731 -38.2548 -26.1402 -26.1352 -26.0869
   -26.0845 -26.0592 -12.6601  -9.1838  -4.9845  -4.5455  -2.8835   0.4886
     1.0852   2.1050   4.4008   4.5742   5.2551   5.5244   5.7600   6.3316

          k = 0.1944-0.6575-0.0990 ( 10942 PWs)   bands (ev):

   -38.3176 -38.3148 -38.2739 -38.2732 -38.2546 -26.1401 -26.1349 -26.0871
   -26.0847 -26.0589 -12.4507  -9.4119  -5.1833  -4.3739  -3.1491   0.3624
     1.3023   1.9423   4.3763   5.1043   5.5891   5.9755   6.1457   6.6091

          k = 0.1944-0.5934-0.0990 ( 10924 PWs)   bands (ev):

   -38.3175 -38.3147 -38.2740 -38.2732 -38.2545 -26.1401 -26.1348 -26.0872
   -26.0847 -26.0588 -12.3432  -9.5311  -5.2737  -4.2317  -3.3288   0.3003
     1.5358   1.7377   4.3018   5.6704   5.8266   6.0756   6.2052   6.7444

          k = 0.1944-0.5292-0.0990 ( 10932 PWs)   bands (ev):

   -38.3175 -38.3147 -38.2739 -38.2732 -38.2546 -26.1401 -26.1349 -26.0872
   -26.0847 -26.0589 -12.3805  -9.4896  -5.2434  -4.2871  -3.2609   0.3213
     1.4254   1.8381   4.3302   5.3989   5.7250   6.0932   6.4225   6.4505

          k = 0.1944-0.4651-0.0990 ( 10944 PWs)   bands (ev):

   -38.3176 -38.3149 -38.2739 -38.2732 -38.2547 -26.1401 -26.1350 -26.0870
   -26.0846 -26.0590 -12.5465  -9.3066  -5.0952  -4.4670  -3.0177   0.4205
     1.1853   2.0335   4.4144   4.8268   5.4194   5.7664   5.9412   6.4340

          k = 0.1944-0.4009-0.0990 ( 10950 PWs)   bands (ev):

   -38.3179 -38.3152 -38.2738 -38.2731 -38.2550 -26.1402 -26.1353 -26.0867
   -26.0843 -26.0594 -12.7839  -9.0532  -4.8726  -4.5790  -2.7572   0.5495
     1.0183   2.1512   4.2958   4.3574   5.1000   5.2910   5.6603   6.2505

          k = 0.1944-0.3368-0.0990 ( 10942 PWs)   bands (ev):

   -38.3181 -38.3155 -38.2736 -38.2729 -38.2553 -26.1403 -26.1358 -26.0863
   -26.0841 -26.0598 -13.0398  -8.8008  -4.8080  -4.3302  -2.5533   0.5311
     1.0761   2.1551   3.9385   4.0145   4.8027   4.8533   5.7917   6.0224

          k = 0.2500 0.1443-0.0990 ( 10970 PWs)   bands (ev):

   -38.3187 -38.3163 -38.2733 -38.2727 -38.2560 -26.1405 -26.1366 -26.0853
   -26.0835 -26.0606 -13.4712  -8.4757  -4.7156  -3.0528  -2.4522  -0.3039
     1.8255   1.9241   3.2695   3.6507   4.1856   4.8183   5.5693   6.0089

          k = 0.2500 0.2085-0.0990 ( 10956 PWs)   bands (ev):

   -38.3186 -38.3159 -38.2735 -38.2728 -38.2557 -26.1406 -26.1361 -26.0858
   -26.0836 -26.0603 -13.3218  -8.5826  -4.8708  -3.3586  -2.4931  -0.2036
     1.7307   1.8950   3.4553   3.8034   4.3913   4.8286   5.7461   6.1063

          k = 0.2500 0.2726-0.0990 ( 10936 PWs)   bands (ev):

   -38.3184 -38.3155 -38.2736 -38.2729 -38.2554 -26.1406 -26.1357 -26.0862
   -26.0839 -26.0599 -13.1283  -8.7398  -4.9257  -3.8730  -2.5507   0.1217
     1.4932   1.8838   3.7393   3.9895   4.6763   4.8625   5.9558   6.0719

          k = 0.2500 0.3368-0.0990 ( 10936 PWs)   bands (ev):

   -38.3181 -38.3153 -38.2737 -38.2730 -38.2551 -26.1404 -26.1354 -26.0866
   -26.0842 -26.0595 -12.9028  -8.9414  -4.8877  -4.3877  -2.6716   0.4578
     1.1335   2.0536   4.1020   4.2041   4.9664   5.0888   5.7839   6.1901

          k = 0.2500 0.4009-0.0990 ( 10950 PWs)   bands (ev):

   -38.3176 -38.3151 -38.2738 -38.2731 -38.2548 -26.1401 -26.1353 -26.0868
   -26.0845 -26.0592 -12.6654  -9.1672  -4.9588  -4.6222  -2.8578   0.5128
     1.0397   2.2232   4.4853   4.5666   5.2431   5.4872   5.5973   6.2493

          k = 0.2500-0.6896-0.0990 ( 10946 PWs)   bands (ev):

   -38.3172 -38.3151 -38.2739 -38.2733 -38.2546 -26.1397 -26.1353 -26.0870
   -26.0848 -26.0589 -12.4486  -9.3810  -5.2517  -4.4501  -3.0911   0.2794
     1.3065   2.2331   4.8405   5.0409   5.4400   5.5926   6.0654   6.2952

          k = 0.2500-0.6255-0.0990 ( 10922 PWs)   bands (ev):

   -38.3169 -38.3151 -38.2739 -38.2734 -38.2545 -26.1395 -26.1353 -26.0871
   -26.0850 -26.0588 -12.2995  -9.5307  -5.4376  -4.2413  -3.3153   0.1134
     1.6196   2.0764   4.8763   5.4427   5.6362   6.0628   6.6115   6.6568

          k = 0.2500-0.5613-0.0990 ( 10930 PWs)   bands (ev):

   -38.3169 -38.3151 -38.2739 -38.2734 -38.2545 -26.1394 -26.1353 -26.0871
   -26.0851 -26.0587 -12.2664  -9.5642  -5.4757  -4.1787  -3.3806   0.0786
     1.7550   1.9705   4.8627   5.4354   5.9558   6.2313   6.3355   6.9624

          k = 0.2500-0.4972-0.0990 ( 10930 PWs)   bands (ev):

   -38.3171 -38.3151 -38.2739 -38.2733 -38.2546 -26.1396 -26.1353 -26.0870
   -26.0849 -26.0588 -12.3622  -9.4675  -5.3623  -4.3402  -3.2108   0.1815
     1.4638   2.1710   4.8855   5.3165   5.4649   5.8036   6.3510   6.4682

          k = 0.2500-0.4330-0.0990 ( 10952 PWs)   bands (ev):

   -38.3174 -38.3151 -38.2738 -38.2732 -38.2547 -26.1399 -26.1353 -26.0869
   -26.0847 -26.0591 -12.5518  -9.2786  -5.1110  -4.5525  -2.9707   0.3983
     1.1578   2.2521   4.6868   4.7962   5.3695   5.5037   5.7965   6.2359

          k = 0.3056 0.1764-0.0990 ( 10958 PWs)   bands (ev):

   -38.3187 -38.3155 -38.2736 -38.2728 -38.2555 -26.1408 -26.1356 -26.0861
   -26.0837 -26.0601 -13.2069  -8.6935  -5.0032  -3.2733  -2.6379  -0.3833
     1.6255   1.9834   3.5976   3.8752   4.5550   4.8501   5.8956   6.2169

          k = 0.3056 0.2406-0.0990 ( 10938 PWs)   bands (ev):

   -38.3186 -38.3151 -38.2737 -38.2728 -38.2553 -26.1409 -26.1352 -26.0865
   -26.0838 -26.0598 -13.0488  -8.8457  -5.0490  -3.5690  -2.7139  -0.2146
     1.5349   1.8647   3.8385   3.9769   4.7927   4.9156   6.0708   6.4183

          k = 0.3056 0.3047-0.0990 ( 10936 PWs)   bands (ev):

   -38.3183 -38.3149 -38.2738 -38.2729 -38.2550 -26.1408 -26.1350 -26.0868
   -26.0840 -26.0595 -12.8576  -9.0256  -5.0186  -4.0468  -2.7958   0.1599
     1.3859   1.7521   4.0793   4.1987   5.0254   5.1711   6.2447   6.3618

          k = 0.3056 0.3689-0.0990 ( 10936 PWs)   bands (ev):

   -38.3179 -38.3148 -38.2739 -38.2731 -38.2548 -26.1404 -26.1350 -26.0870
   -26.0844 -26.0592 -12.6496  -9.2150  -5.0119  -4.4201  -2.9323   0.4454
     1.1516   1.9235   4.2682   4.5978   5.2875   5.5672   6.0261   6.4589

          k = 0.3056-0.7217-0.0990 ( 10938 PWs)   bands (ev):

   -38.3174 -38.3150 -38.2739 -38.2733 -38.2546 -26.1399 -26.1352 -26.0870
   -26.0848 -26.0589 -12.4492  -9.3920  -5.2272  -4.4251  -3.1116   0.3093
     1.3095   2.1224   4.6190   5.0701   5.4958   5.7914   6.0906   6.4105

          k = 0.3056-0.6575-0.0990 ( 10924 PWs)   bands (ev):

   -38.3168 -38.3152 -38.2738 -38.2734 -38.2545 -26.1393 -26.1355 -26.0870
   -26.0851 -26.0588 -12.2906  -9.5293  -5.4752  -4.2413  -3.3098   0.0705
     1.6216   2.1722   5.1924   5.3733   5.5428   5.8902   6.5969   6.6558

          k = 0.3056-0.5934-0.0990 ( 10930 PWs)   bands (ev):

   -38.3164 -38.3156 -38.2737 -38.2736 -38.2544 -26.1390 -26.1357 -26.0870
   -26.0853 -26.0587 -12.2126  -9.5964  -5.5956  -4.0906  -3.4536  -0.0504
     1.8927   2.0600   5.2559   5.5228   6.0072   6.3660   6.5852   6.8174

          k = 0.3056-0.5292-0.0990 ( 10944 PWs)   bands (ev):

   -38.3165 -38.3154 -38.2738 -38.2735 -38.2545 -26.1391 -26.1356 -26.0870
   -26.0852 -26.0587 -12.2394  -9.5734  -5.5548  -4.1497  -3.3976  -0.0091
     1.7703   2.1297   5.2984   5.4439   5.7372   6.1016   6.7657   6.9563

          k = 0.3611 0.2085-0.0990 ( 10932 PWs)   bands (ev):

   -38.3187 -38.3148 -38.2738 -38.2728 -38.2551 -26.1412 -26.1347 -26.0868
   -26.0838 -26.0596 -12.9300  -8.9907  -5.0940  -3.4491  -2.9115  -0.3212
     1.3335   1.9964   3.9064   4.0403   4.9385   5.0523   6.1512   6.6585

          k = 0.3611 0.2726-0.0990 ( 10928 PWs)   bands (ev):

   -38.3186 -38.3145 -38.2739 -38.2729 -38.2550 -26.1412 -26.1344 -26.0871
   -26.0839 -26.0594 -12.7812  -9.1518  -5.0690  -3.7132  -2.9962  -0.1062
     1.2282   1.8842   3.9078   4.3299   5.1214   5.3339   6.2742   6.7857

          k = 0.3611 0.3368-0.0990 ( 10928 PWs)   bands (ev):

   -38.3183 -38.3145 -38.2740 -38.2730 -38.2548 -26.1409 -26.1344 -26.0872
   -26.0842 -26.0591 -12.6160  -9.3065  -5.0332  -4.0987  -3.0794   0.2923
     1.1373   1.7426   3.9778   4.7060   5.3894   5.7030   6.3896   6.7013

          k = 0.3611-0.7538-0.0990 ( 10940 PWs)   bands (ev):

   -38.3178 -38.3146 -38.2740 -38.2731 -38.2546 -26.1404 -26.1347 -26.0872
   -26.0845 -26.0589 -12.4536  -9.4372  -5.1291  -4.2952  -3.1973   0.4247
     1.2418   1.7782   4.1613   5.1543   5.6864   6.0974   6.2262   6.5500

          k = 0.3611-0.6896-0.0990 ( 10936 PWs)   bands (ev):

   -38.3172 -38.3149 -38.2739 -38.2733 -38.2545 -26.1397 -26.1351 -26.0871
   -26.0849 -26.0588 -12.3171  -9.5321  -5.3671  -4.2396  -3.3233   0.1936
     1.6088   1.9054   4.5647   5.5589   5.7098   6.1720   6.3689   6.6885

          k = 0.3611-0.6255-0.0990 ( 10952 PWs)   bands (ev):

   -38.3166 -38.3154 -38.2738 -38.2735 -38.2544 -26.1392 -26.1355 -26.0870
   -26.0852 -26.0587 -12.2309  -9.5857  -5.5545  -4.1237  -3.4268  -0.0059
     1.8492   2.0261   5.2033   5.3209   6.1201   6.2619   6.4025   7.0414

          k = 0.4167 0.2406-0.0990 ( 10898 PWs)   bands (ev):

   -38.3187 -38.3142 -38.2740 -38.2729 -38.2548 -26.1414 -26.1341 -26.0873
   -26.0839 -26.0592 -12.6819  -9.2881  -5.0527  -3.5706  -3.1941  -0.1853
     1.0673   1.9886   3.7756   4.5636   5.2736   5.5832   6.1938   6.6973

          k = 0.4167 0.3047-0.0990 ( 10900 PWs)   bands (ev):

   -38.3185 -38.3141 -38.2741 -38.2729 -38.2547 -26.1413 -26.1339 -26.0875
   -26.0840 -26.0591 -12.5719  -9.4059  -5.0131  -3.7818  -3.2533   0.0483
     0.9705   1.8957   3.7581   4.8901   5.4955   5.9143   6.1633   6.4717

          k = 0.4167-0.7858-0.0990 ( 10920 PWs)   bands (ev):

   -38.3182 -38.3142 -38.2741 -38.2730 -38.2546 -26.1410 -26.1341 -26.0875
   -26.0843 -26.0589 -12.4657  -9.4864  -5.0286  -4.0630  -3.2972   0.4506
     0.9166   1.7560   3.8480   5.3035   5.7883   5.9983   6.3142   6.3652

          k = 0.4167-0.7217-0.0990 ( 10930 PWs)   bands (ev):

   -38.3177 -38.3145 -38.2740 -38.2732 -38.2546 -26.1404 -26.1346 -26.0873
   -26.0846 -26.0589 -12.3773  -9.5247  -5.1729  -4.2085  -3.3272   0.4145
     1.3093   1.6983   4.0968   5.7275   5.8292   6.0051   6.1426   6.8114

          k = 0.4722 0.2726-0.0990 ( 10916 PWs)   bands (ev):

   -38.3187 -38.3139 -38.2741 -38.2729 -38.2547 -26.1415 -26.1337 -26.0876
   -26.0840 -26.0590 -12.5269  -9.4795  -4.9822  -3.6326  -3.3833  -0.0676
     0.8975   1.9798   3.6635   5.1420   5.5535   5.9170   6.2048   6.3317

          k = 0.4722-0.8179-0.0990 ( 10902 PWs)   bands (ev):

   -38.3185 -38.3140 -38.2741 -38.2729 -38.2547 -26.1414 -26.1338 -26.0876
   -26.0841 -26.0590 -12.4899  -9.5067  -4.9782  -3.7928  -3.3671   0.1328
     0.8559   1.9003   3.6903   5.4463   5.5239   5.8553   6.3135   6.5759

     highest occupied, lowest unoccupied level (ev):    -2.2017   -0.3833

!    total energy              =    -316.35515782 Ry
     estimated scf accuracy    <          1.0E-10 Ry

     The total energy is the sum of the following terms:
     one-electron contribution =   -1181.74496984 Ry
     hartree contribution      =     588.03829830 Ry
     xc contribution           =     -35.82531025 Ry
     ewald contribution        =     313.17682398 Ry

     convergence has been achieved in   9 iterations

     Writing output data file ./work/GeTe-mono.save/
 
     init_run     :      0.88s CPU      1.04s WALL (       1 calls)
     electrons    :     28.11s CPU     30.29s WALL (       1 calls)

     Called by init_run:
     wfcinit      :      0.62s CPU      0.74s WALL (       1 calls)
     potinit      :      0.10s CPU      0.11s WALL (       1 calls)
     hinit0       :      0.06s CPU      0.07s WALL (       1 calls)

     Called by electrons:
     c_bands      :     24.62s CPU     26.48s WALL (      10 calls)
     sum_band     :      3.20s CPU      3.50s WALL (      10 calls)
     v_of_rho     :      0.24s CPU      0.26s WALL (      10 calls)
     mix_rho      :      0.02s CPU      0.03s WALL (      10 calls)

     Called by c_bands:
     init_us_2    :      0.39s CPU      0.40s WALL (    1890 calls)
     cegterg      :     23.27s CPU     25.14s WALL (     900 calls)

     Called by *egterg:
     cdiaghg      :      3.40s CPU      3.67s WALL (    4716 calls)
     h_psi        :     18.24s CPU     19.82s WALL (    4896 calls)
     g_psi        :      0.13s CPU      0.10s WALL (    3906 calls)

     Called by h_psi:
     h_psi:calbec :      0.56s CPU      0.63s WALL (    4896 calls)
     vloc_psi     :     17.33s CPU     18.78s WALL (    4896 calls)
     add_vuspsi   :      0.28s CPU      0.32s WALL (    4896 calls)

     General routines
     calbec       :      0.54s CPU      0.62s WALL (    4896 calls)
     fft          :      0.12s CPU      0.13s WALL (     118 calls)
     ffts         :      0.01s CPU      0.00s WALL (      20 calls)
     fftw         :     18.40s CPU     19.98s WALL (  164932 calls)
     interpolate  :      0.02s CPU      0.01s WALL (      10 calls)
 
     Parallel routines
     fft_scatt_xy :      2.31s CPU      2.45s WALL (  165070 calls)
     fft_scatt_yz :      9.21s CPU      9.83s WALL (  165070 calls)
 
     PWSCF        :     29.24s CPU     31.88s WALL

 
   This run was terminated on:  23:55:14  12Sep2021            

=------------------------------------------------------------------------------=
   JOB DONE.
=------------------------------------------------------------------------------=
