
     Program PWSCF v.6.7MaX starts on 12Feb2021 at  3:46:26 

     This program is part of the open-source Quantum ESPRESSO suite
     for quantum simulation of materials; please cite
         "P. Giannozzi et al., J. Phys.:Condens. Matter 21 395502 (2009);
         "P. Giannozzi et al., J. Phys.:Condens. Matter 29 465901 (2017);
          URL http://www.quantum-espresso.org", 
     in publications or presentations arising from this work. More details at
     http://www.quantum-espresso.org/quote

     Parallel version (MPI), running on    40 processors

     MPI processes distributed on     1 nodes
     R & G space division:  proc/nbgrp/npool/nimage =      40
     Waiting for input...
     Reading input from standard input

     Current dimensions of program PWSCF are:
     Max number of different atomic species (ntypx) = 10
     Max number of k-points (npk) =  40000
     Max angular momentum in pseudopotentials (lmaxx) =  3
     Message from routine read_pp_mesh:
     mesh size missing, using the one in header
     Message from routine read_pp_mesh:
     mesh size missing, using the one in header

     Subspace diagonalization in iterative solution of the eigenvalue problem:
     a serial algorithm will be used

     Message from routine setup:
     no reason to have ecutrho>4*ecutwfc
     Message from routine setup:
     using ibrav=0 with symmetry is DISCOURAGED, use correct ibrav instead
 
     Parallelization info
     --------------------
     sticks:   dense  smooth     PW     G-vecs:    dense   smooth      PW
     Min          66      22      7                 2267      436      76
     Max          67      23      8                 2271      439      80
     Sum        2677     889    283                90777    17477    3119
 


     bravais-lattice index     =            0
     lattice parameter (alat)  =       8.0289  a.u.
     unit-cell volume          =     365.9749 (a.u.)^3
     number of atoms/cell      =            2
     number of atomic types    =            2
     number of electrons       =        30.00
     number of Kohn-Sham states=           30
     kinetic-energy cutoff     =      50.0000  Ry
     charge density cutoff     =     600.0000  Ry
     scf convergence threshold =      1.0E-09
     mixing beta               =       0.7000
     number of iterations used =            8  plain     mixing
     Exchange-correlation= PBE
                           (   1   4   3   4   0   0   0)

     celldm(1)=   8.028889  celldm(2)=   0.000000  celldm(3)=   0.000000
     celldm(4)=   0.000000  celldm(5)=   0.000000  celldm(6)=   0.000000

     crystal axes: (cart. coord. in units of alat)
               a(1) = (   1.000000   0.000000   0.000000 )  
               a(2) = (   0.500000   0.866025   0.000000 )  
               a(3) = (   0.500000   0.288675   0.816497 )  

     reciprocal axes: (cart. coord. in units 2 pi/alat)
               b(1) = (  1.000000 -0.577350 -0.408248 )  
               b(2) = (  0.000000  1.154701 -0.408248 )  
               b(3) = (  0.000000  0.000000  1.224745 )  


     PseudoPot. # 1 for Ge read from file:
     ../../../pseudo/Ge_ONCV_PBE-1.2.upf
     MD5 check sum: 9f45083245c564cb2163622d60d05ca9
     Pseudo is Norm-conserving, Zval = 14.0
     Generated using ONCVPSP code by D. R. Hamann
     Using radial grid of  602 points,  6 beta functions with: 
                l(1) =   0
                l(2) =   0
                l(3) =   1
                l(4) =   1
                l(5) =   2
                l(6) =   2

     PseudoPot. # 2 for Te read from file:
     ../../../pseudo/Te_ONCV_PBE-1.2.upf
     MD5 check sum: dd4de4dac1e38587f63aaf3700bb29d3
     Pseudo is Norm-conserving, Zval = 16.0
     Generated using ONCVPSP code by D. R. Hamann
     Using radial grid of  602 points,  6 beta functions with: 
                l(1) =   0
                l(2) =   0
                l(3) =   1
                l(4) =   1
                l(5) =   2
                l(6) =   2

     atomic species   valence    mass     pseudopotential
        Ge            14.00    72.63000     Ge( 1.00)
        Te            16.00   127.60000     Te( 1.00)

     12 Sym. Ops., with inversion, found



   Cartesian axes

     site n.     atom                  positions (alat units)
         1           Ge  tau(   1) = (   0.0000000   0.0000000   0.0000000  )
         2           Te  tau(   2) = (   1.0000000   0.5773503   0.4082483  )

     number of k points=  1539

     Number of k-points >= 100: set verbosity='high' to print them.

     Dense  grid:    90777 G-vectors     FFT dimensions: (  64,  64,  64)

     Smooth grid:    17477 G-vectors     FFT dimensions: (  40,  40,  40)

     Estimated max dynamical RAM per process >      43.87 MB

     Estimated total dynamical RAM >       1.71 GB

     Initial potential from superposition of free atoms

     starting charge   29.90735, renormalised to   30.00000
     Starting wfcs are random

     total cpu time spent up to now is        6.3 secs

     Self-consistent Calculation

     iteration #  1     ecut=    50.00 Ry     beta= 0.70
     Davidson diagonalization with overlap
     ethr =  1.00E-02,  avg # of iterations =  9.1

     Threshold (ethr) on eigenvalues was too large:
     Diagonalizing with lowered threshold

     Davidson diagonalization with overlap
     ethr =  4.90E-05,  avg # of iterations =  6.4

     total cpu time spent up to now is      108.5 secs

     total energy              =    -316.36389246 Ry
     estimated scf accuracy    <       0.01103726 Ry

     iteration #  2     ecut=    50.00 Ry     beta= 0.70
     Davidson diagonalization with overlap
     ethr =  3.68E-05,  avg # of iterations =  2.1

     total cpu time spent up to now is      129.1 secs

     total energy              =    -316.36590148 Ry
     estimated scf accuracy    <       0.00266771 Ry

     iteration #  3     ecut=    50.00 Ry     beta= 0.70
     Davidson diagonalization with overlap
     ethr =  8.89E-06,  avg # of iterations =  2.0

     total cpu time spent up to now is      148.9 secs

     total energy              =    -316.36665115 Ry
     estimated scf accuracy    <       0.00039651 Ry

     iteration #  4     ecut=    50.00 Ry     beta= 0.70
     Davidson diagonalization with overlap
     ethr =  1.32E-06,  avg # of iterations =  2.8

     total cpu time spent up to now is      170.3 secs

     total energy              =    -316.36672499 Ry
     estimated scf accuracy    <       0.00000996 Ry

     iteration #  5     ecut=    50.00 Ry     beta= 0.70
     Davidson diagonalization with overlap
     ethr =  3.32E-08,  avg # of iterations =  2.0

     total cpu time spent up to now is      190.3 secs

     total energy              =    -316.36672594 Ry
     estimated scf accuracy    <       0.00000010 Ry

     iteration #  6     ecut=    50.00 Ry     beta= 0.70
     Davidson diagonalization with overlap
     ethr =  3.30E-10,  avg # of iterations =  3.3

     total cpu time spent up to now is      214.9 secs

     total energy              =    -316.36672597 Ry
     estimated scf accuracy    <          2.9E-09 Ry

     iteration #  7     ecut=    50.00 Ry     beta= 0.70
     Davidson diagonalization with overlap
     ethr =  9.72E-12,  avg # of iterations =  2.4

     total cpu time spent up to now is      236.1 secs

     End of self-consistent calculation

     Number of k-points >= 100: set verbosity='high' to print the bands.

     highest occupied, lowest unoccupied level (ev):    10.8114   11.2195

!    total energy              =    -316.36672597 Ry
     estimated scf accuracy    <          5.2E-11 Ry

     The total energy is the sum of the following terms:
     one-electron contribution =    -131.15525637 Ry
     hartree contribution      =      76.17301644 Ry
     xc contribution           =     -35.87532855 Ry
     ewald contribution        =    -225.50915749 Ry

     convergence has been achieved in   7 iterations

     Writing output data file ./work/GeTe-c.save/
 
     init_run     :      5.44s CPU      6.20s WALL (       1 calls)
     electrons    :    208.36s CPU    229.83s WALL (       1 calls)

     Called by init_run:
     wfcinit      :      5.38s CPU      6.12s WALL (       1 calls)
     potinit      :      0.02s CPU      0.02s WALL (       1 calls)
     hinit0       :      0.02s CPU      0.02s WALL (       1 calls)

     Called by electrons:
     c_bands      :    189.48s CPU    208.11s WALL (       8 calls)
     sum_band     :     18.84s CPU     21.67s WALL (       8 calls)
     v_of_rho     :      0.04s CPU      0.04s WALL (       8 calls)
     mix_rho      :      0.00s CPU      0.01s WALL (       8 calls)

     Called by c_bands:
     init_us_2    :      0.70s CPU      0.77s WALL (   26163 calls)
     cegterg      :    185.74s CPU    204.08s WALL (   12312 calls)

     Called by *egterg:
     cdiaghg      :     59.72s CPU     64.77s WALL (   57148 calls)
     h_psi        :    117.80s CPU    130.41s WALL (   60226 calls)
     g_psi        :      0.19s CPU      0.21s WALL (   46375 calls)

     Called by h_psi:
     h_psi:calbec :      3.46s CPU      3.87s WALL (   60226 calls)
     vloc_psi     :    112.98s CPU    125.03s WALL (   60226 calls)
     add_vuspsi   :      0.98s CPU      1.10s WALL (   60226 calls)

     General routines
     calbec       :      3.35s CPU      3.75s WALL (   60226 calls)
     fft          :      0.02s CPU      0.03s WALL (      94 calls)
     ffts         :      0.00s CPU      0.00s WALL (      16 calls)
     fftw         :    125.42s CPU    139.55s WALL ( 2613864 calls)
     interpolate  :      0.00s CPU      0.00s WALL (       8 calls)
 
     Parallel routines
     fft_scatt_xy :      6.52s CPU      7.20s WALL ( 2613974 calls)
     fft_scatt_yz :     75.07s CPU     83.66s WALL ( 2613974 calls)
 
     PWSCF        :   3m40.73s CPU   4m 7.69s WALL

 
   This run was terminated on:   3:50:34  12Feb2021            

=------------------------------------------------------------------------------=
   JOB DONE.
=------------------------------------------------------------------------------=
