
     Program PWSCF v.6.7MaX starts on 12Sep2021 at 23:36:41 

     This program is part of the open-source Quantum ESPRESSO suite
     for quantum simulation of materials; please cite
         "P. Giannozzi et al., J. Phys.:Condens. Matter 21 395502 (2009);
         "P. Giannozzi et al., J. Phys.:Condens. Matter 29 465901 (2017);
          URL http://www.quantum-espresso.org", 
     in publications or presentations arising from this work. More details at
     http://www.quantum-espresso.org/quote

     Parallel version (MPI), running on    20 processors

     MPI processes distributed on     1 nodes
     R & G space division:  proc/nbgrp/npool/nimage =      20
     Waiting for input...
     Reading input from standard input

     Current dimensions of program PWSCF are:
     Max number of different atomic species (ntypx) = 10
     Max number of k-points (npk) =  40000
     Max angular momentum in pseudopotentials (lmaxx) =  3

     Atomic positions and unit cell read from directory:
     ./work/GeTe-mono.save/
     Atomic positions from file used, from input discarded
 
     Message from routine read_pp_mesh:
     mesh size missing, using the one in header
     Message from routine read_pp_mesh:
     mesh size missing, using the one in header

     Subspace diagonalization in iterative solution of the eigenvalue problem:
     a serial algorithm will be used

     Message from routine setup:
     no reason to have ecutrho>4*ecutwfc
     Message from routine setup:
     using ibrav=0 with symmetry is DISCOURAGED, use correct ibrav instead
 
     Parallelization info
     --------------------
     sticks:   dense  smooth     PW     G-vecs:    dense   smooth      PW
     Min         116      38     12                22746     4364     760
     Max         117      39     13                22761     4379     777
     Sum        2335     769    241               455125    87447   15299
 


     bravais-lattice index     =            0
     lattice parameter (alat)  =       7.4847  a.u.
     unit-cell volume          =    1833.6240 (a.u.)^3
     number of atoms/cell      =            2
     number of atomic types    =            2
     number of electrons       =        30.00
     number of Kohn-Sham states=           24
     kinetic-energy cutoff     =      50.0000  Ry
     charge density cutoff     =     600.0000  Ry
     Exchange-correlation= PBE
                           (   1   4   3   4   0   0   0)

     celldm(1)=   7.484717  celldm(2)=   0.000000  celldm(3)=   0.000000
     celldm(4)=   0.000000  celldm(5)=   0.000000  celldm(6)=   0.000000

     crystal axes: (cart. coord. in units of alat)
               a(1) = (   1.000000   0.000000   0.000000 )  
               a(2) = (   0.500000   0.866025   0.000000 )  
               a(3) = (   0.000000   0.000000   5.049559 )  

     reciprocal axes: (cart. coord. in units 2 pi/alat)
               b(1) = (  1.000000 -0.577350  0.000000 )  
               b(2) = (  0.000000  1.154701  0.000000 )  
               b(3) = (  0.000000  0.000000  0.198037 )  


     PseudoPot. # 1 for Ge read from file:
     ../pseudo/Ge_ONCV_PBE-1.2.upf
     MD5 check sum: 9f45083245c564cb2163622d60d05ca9
     Pseudo is Norm-conserving, Zval = 14.0
     Generated using ONCVPSP code by D. R. Hamann
     Using radial grid of  602 points,  6 beta functions with: 
                l(1) =   0
                l(2) =   0
                l(3) =   1
                l(4) =   1
                l(5) =   2
                l(6) =   2

     PseudoPot. # 2 for Te read from file:
     ../pseudo/Te_ONCV_PBE-1.2.upf
     MD5 check sum: dd4de4dac1e38587f63aaf3700bb29d3
     Pseudo is Norm-conserving, Zval = 16.0
     Generated using ONCVPSP code by D. R. Hamann
     Using radial grid of  602 points,  6 beta functions with: 
                l(1) =   0
                l(2) =   0
                l(3) =   1
                l(4) =   1
                l(5) =   2
                l(6) =   2

     atomic species   valence    mass     pseudopotential
        Ge            14.00    72.63000     Ge( 1.00)
        Te            16.00   127.60000     Te( 1.00)

      6 Sym. Ops. (no inversion) found


                                    s                        frac. trans.

      isym =  1     identity                                     

 cryst.   s( 1) = (     1          0          0      )
                  (     0          1          0      )
                  (     0          0          1      )

 cart.    s( 1) = (  1.0000000  0.0000000  0.0000000 )
                  (  0.0000000  1.0000000  0.0000000 )
                  (  0.0000000  0.0000000  1.0000000 )


      isym =  2     120 deg rotation - cryst. axis [0,0,1]       

 cryst.   s( 2) = (    -1          1          0      )
                  (    -1          0          0      )
                  (     0          0          1      )

 cart.    s( 2) = ( -0.5000000 -0.8660254  0.0000000 )
                  (  0.8660254 -0.5000000  0.0000000 )
                  (  0.0000000  0.0000000  1.0000000 )


      isym =  3     120 deg rotation - cryst. axis [0,0,-1]      

 cryst.   s( 3) = (     0         -1          0      )
                  (     1         -1          0      )
                  (     0          0          1      )

 cart.    s( 3) = ( -0.5000000  0.8660254  0.0000000 )
                  ( -0.8660254 -0.5000000  0.0000000 )
                  (  0.0000000  0.0000000  1.0000000 )


      isym =  4     inv. 180 deg rotation - cart. axis [1,0,0]   

 cryst.   s( 4) = (    -1          0          0      )
                  (    -1          1          0      )
                  (     0          0          1      )

 cart.    s( 4) = ( -1.0000000 -0.0000000  0.0000000 )
                  (  0.0000000  1.0000000  0.0000000 )
                  (  0.0000000  0.0000000  1.0000000 )


      isym =  5     inv. 180 deg rotation - cryst. axis [0,1,0]  

 cryst.   s( 5) = (     0          1          0      )
                  (     1          0          0      )
                  (     0          0          1      )

 cart.    s( 5) = (  0.5000000  0.8660254  0.0000000 )
                  (  0.8660254 -0.5000000  0.0000000 )
                  (  0.0000000  0.0000000  1.0000000 )


      isym =  6     inv. 180 deg rotation - cryst. axis [1,1,0]  

 cryst.   s( 6) = (     1         -1          0      )
                  (     0         -1          0      )
                  (     0          0          1      )

 cart.    s( 6) = (  0.5000000 -0.8660254  0.0000000 )
                  ( -0.8660254 -0.5000000  0.0000000 )
                  (  0.0000000  0.0000000  1.0000000 )


   Cartesian axes

     site n.     atom                  positions (alat units)
         1           Ge  tau(   1) = (   0.0000000   0.0000000   0.0000000  )
         2           Te  tau(   2) = (   1.0000000   0.5773503   0.3928870  )

   Crystallographic axes

     site n.     atom                  positions (cryst. coord.)
         1           Ge  tau(   1) = (  0.0000000  0.0000000  0.0000000  )
         2           Te  tau(   2) = (  0.6666667  0.6666667  0.0778062  )

     number of k points=   600 (tetrahedron method)
                       cart. coord. in units 2pi/alat
        k(    1) = (   0.0104167   0.0060141  -0.0990185), wk =   0.0017361
        k(    2) = (   0.0104167   0.0300703  -0.0990185), wk =   0.0034722
        k(    3) = (   0.0104167   0.0541266  -0.0990185), wk =   0.0034722
        k(    4) = (   0.0104167   0.0781828  -0.0990185), wk =   0.0034722
        k(    5) = (   0.0104167   0.1022391  -0.0990185), wk =   0.0034722
        k(    6) = (   0.0104167   0.1262954  -0.0990185), wk =   0.0034722
        k(    7) = (   0.0104167   0.1503516  -0.0990185), wk =   0.0034722
        k(    8) = (   0.0104167   0.1744079  -0.0990185), wk =   0.0034722
        k(    9) = (   0.0104167   0.1984642  -0.0990185), wk =   0.0034722
        k(   10) = (   0.0104167   0.2225204  -0.0990185), wk =   0.0034722
        k(   11) = (   0.0104167   0.2465767  -0.0990185), wk =   0.0034722
        k(   12) = (   0.0104167   0.2706329  -0.0990185), wk =   0.0034722
        k(   13) = (   0.0104167   0.2946892  -0.0990185), wk =   0.0034722
        k(   14) = (   0.0104167   0.3187455  -0.0990185), wk =   0.0034722
        k(   15) = (   0.0104167   0.3428017  -0.0990185), wk =   0.0034722
        k(   16) = (   0.0104167   0.3668580  -0.0990185), wk =   0.0034722
        k(   17) = (   0.0104167   0.3909142  -0.0990185), wk =   0.0034722
        k(   18) = (   0.0104167   0.4149705  -0.0990185), wk =   0.0034722
        k(   19) = (   0.0104167   0.4390268  -0.0990185), wk =   0.0034722
        k(   20) = (   0.0104167   0.4630830  -0.0990185), wk =   0.0034722
        k(   21) = (   0.0104167   0.4871393  -0.0990185), wk =   0.0034722
        k(   22) = (   0.0104167   0.5111956  -0.0990185), wk =   0.0034722
        k(   23) = (   0.0104167   0.5352518  -0.0990185), wk =   0.0034722
        k(   24) = (   0.0104167   0.5593081  -0.0990185), wk =   0.0034722
        k(   25) = (   0.0104167  -0.5713362  -0.0990185), wk =   0.0034722
        k(   26) = (   0.0104167  -0.5472799  -0.0990185), wk =   0.0034722
        k(   27) = (   0.0104167  -0.5232237  -0.0990185), wk =   0.0034722
        k(   28) = (   0.0104167  -0.4991674  -0.0990185), wk =   0.0034722
        k(   29) = (   0.0104167  -0.4751112  -0.0990185), wk =   0.0034722
        k(   30) = (   0.0104167  -0.4510549  -0.0990185), wk =   0.0034722
        k(   31) = (   0.0104167  -0.4269986  -0.0990185), wk =   0.0034722
        k(   32) = (   0.0104167  -0.4029424  -0.0990185), wk =   0.0034722
        k(   33) = (   0.0104167  -0.3788861  -0.0990185), wk =   0.0034722
        k(   34) = (   0.0104167  -0.3548299  -0.0990185), wk =   0.0034722
        k(   35) = (   0.0104167  -0.3307736  -0.0990185), wk =   0.0034722
        k(   36) = (   0.0104167  -0.3067173  -0.0990185), wk =   0.0034722
        k(   37) = (   0.0104167  -0.2826611  -0.0990185), wk =   0.0034722
        k(   38) = (   0.0104167  -0.2586048  -0.0990185), wk =   0.0034722
        k(   39) = (   0.0104167  -0.2345485  -0.0990185), wk =   0.0034722
        k(   40) = (   0.0104167  -0.2104923  -0.0990185), wk =   0.0034722
        k(   41) = (   0.0104167  -0.1864360  -0.0990185), wk =   0.0034722
        k(   42) = (   0.0104167  -0.1623798  -0.0990185), wk =   0.0034722
        k(   43) = (   0.0104167  -0.1383235  -0.0990185), wk =   0.0034722
        k(   44) = (   0.0104167  -0.1142672  -0.0990185), wk =   0.0034722
        k(   45) = (   0.0104167  -0.0902110  -0.0990185), wk =   0.0034722
        k(   46) = (   0.0104167  -0.0661547  -0.0990185), wk =   0.0034722
        k(   47) = (   0.0104167  -0.0420985  -0.0990185), wk =   0.0034722
        k(   48) = (   0.0104167  -0.0180422  -0.0990185), wk =   0.0017361
        k(   49) = (   0.0312500   0.0180422  -0.0990185), wk =   0.0017361
        k(   50) = (   0.0312500   0.0420985  -0.0990185), wk =   0.0034722
        k(   51) = (   0.0312500   0.0661547  -0.0990185), wk =   0.0034722
        k(   52) = (   0.0312500   0.0902110  -0.0990185), wk =   0.0034722
        k(   53) = (   0.0312500   0.1142672  -0.0990185), wk =   0.0034722
        k(   54) = (   0.0312500   0.1383235  -0.0990185), wk =   0.0034722
        k(   55) = (   0.0312500   0.1623798  -0.0990185), wk =   0.0034722
        k(   56) = (   0.0312500   0.1864360  -0.0990185), wk =   0.0034722
        k(   57) = (   0.0312500   0.2104923  -0.0990185), wk =   0.0034722
        k(   58) = (   0.0312500   0.2345485  -0.0990185), wk =   0.0034722
        k(   59) = (   0.0312500   0.2586048  -0.0990185), wk =   0.0034722
        k(   60) = (   0.0312500   0.2826611  -0.0990185), wk =   0.0034722
        k(   61) = (   0.0312500   0.3067173  -0.0990185), wk =   0.0034722
        k(   62) = (   0.0312500   0.3307736  -0.0990185), wk =   0.0034722
        k(   63) = (   0.0312500   0.3548299  -0.0990185), wk =   0.0034722
        k(   64) = (   0.0312500   0.3788861  -0.0990185), wk =   0.0034722
        k(   65) = (   0.0312500   0.4029424  -0.0990185), wk =   0.0034722
        k(   66) = (   0.0312500   0.4269986  -0.0990185), wk =   0.0034722
        k(   67) = (   0.0312500   0.4510549  -0.0990185), wk =   0.0034722
        k(   68) = (   0.0312500   0.4751112  -0.0990185), wk =   0.0034722
        k(   69) = (   0.0312500   0.4991674  -0.0990185), wk =   0.0034722
        k(   70) = (   0.0312500   0.5232237  -0.0990185), wk =   0.0034722
        k(   71) = (   0.0312500   0.5472799  -0.0990185), wk =   0.0034722
        k(   72) = (   0.0312500  -0.5833643  -0.0990185), wk =   0.0034722
        k(   73) = (   0.0312500  -0.5593081  -0.0990185), wk =   0.0034722
        k(   74) = (   0.0312500  -0.5352518  -0.0990185), wk =   0.0034722
        k(   75) = (   0.0312500  -0.5111956  -0.0990185), wk =   0.0034722
        k(   76) = (   0.0312500  -0.4871393  -0.0990185), wk =   0.0034722
        k(   77) = (   0.0312500  -0.4630830  -0.0990185), wk =   0.0034722
        k(   78) = (   0.0312500  -0.4390268  -0.0990185), wk =   0.0034722
        k(   79) = (   0.0312500  -0.4149705  -0.0990185), wk =   0.0034722
        k(   80) = (   0.0312500  -0.3909142  -0.0990185), wk =   0.0034722
        k(   81) = (   0.0312500  -0.3668580  -0.0990185), wk =   0.0034722
        k(   82) = (   0.0312500  -0.3428017  -0.0990185), wk =   0.0034722
        k(   83) = (   0.0312500  -0.3187455  -0.0990185), wk =   0.0034722
        k(   84) = (   0.0312500  -0.2946892  -0.0990185), wk =   0.0034722
        k(   85) = (   0.0312500  -0.2706329  -0.0990185), wk =   0.0034722
        k(   86) = (   0.0312500  -0.2465767  -0.0990185), wk =   0.0034722
        k(   87) = (   0.0312500  -0.2225204  -0.0990185), wk =   0.0034722
        k(   88) = (   0.0312500  -0.1984642  -0.0990185), wk =   0.0034722
        k(   89) = (   0.0312500  -0.1744079  -0.0990185), wk =   0.0034722
        k(   90) = (   0.0312500  -0.1503516  -0.0990185), wk =   0.0034722
        k(   91) = (   0.0312500  -0.1262954  -0.0990185), wk =   0.0034722
        k(   92) = (   0.0312500  -0.1022391  -0.0990185), wk =   0.0034722
        k(   93) = (   0.0312500  -0.0781828  -0.0990185), wk =   0.0034722
        k(   94) = (   0.0312500  -0.0541266  -0.0990185), wk =   0.0017361
        k(   95) = (   0.0520833   0.0300703  -0.0990185), wk =   0.0017361
        k(   96) = (   0.0520833   0.0541266  -0.0990185), wk =   0.0034722
        k(   97) = (   0.0520833   0.0781828  -0.0990185), wk =   0.0034722
        k(   98) = (   0.0520833   0.1022391  -0.0990185), wk =   0.0034722
        k(   99) = (   0.0520833   0.1262954  -0.0990185), wk =   0.0034722
        k(  100) = (   0.0520833   0.1503516  -0.0990185), wk =   0.0034722
        k(  101) = (   0.0520833   0.1744079  -0.0990185), wk =   0.0034722
        k(  102) = (   0.0520833   0.1984642  -0.0990185), wk =   0.0034722
        k(  103) = (   0.0520833   0.2225204  -0.0990185), wk =   0.0034722
        k(  104) = (   0.0520833   0.2465767  -0.0990185), wk =   0.0034722
        k(  105) = (   0.0520833   0.2706329  -0.0990185), wk =   0.0034722
        k(  106) = (   0.0520833   0.2946892  -0.0990185), wk =   0.0034722
        k(  107) = (   0.0520833   0.3187455  -0.0990185), wk =   0.0034722
        k(  108) = (   0.0520833   0.3428017  -0.0990185), wk =   0.0034722
        k(  109) = (   0.0520833   0.3668580  -0.0990185), wk =   0.0034722
        k(  110) = (   0.0520833   0.3909142  -0.0990185), wk =   0.0034722
        k(  111) = (   0.0520833   0.4149705  -0.0990185), wk =   0.0034722
        k(  112) = (   0.0520833   0.4390268  -0.0990185), wk =   0.0034722
        k(  113) = (   0.0520833   0.4630830  -0.0990185), wk =   0.0034722
        k(  114) = (   0.0520833   0.4871393  -0.0990185), wk =   0.0034722
        k(  115) = (   0.0520833   0.5111956  -0.0990185), wk =   0.0034722
        k(  116) = (   0.0520833   0.5352518  -0.0990185), wk =   0.0034722
        k(  117) = (   0.0520833  -0.5953925  -0.0990185), wk =   0.0034722
        k(  118) = (   0.0520833  -0.5713362  -0.0990185), wk =   0.0034722
        k(  119) = (   0.0520833  -0.5472799  -0.0990185), wk =   0.0034722
        k(  120) = (   0.0520833  -0.5232237  -0.0990185), wk =   0.0034722
        k(  121) = (   0.0520833  -0.4991674  -0.0990185), wk =   0.0034722
        k(  122) = (   0.0520833  -0.4751112  -0.0990185), wk =   0.0034722
        k(  123) = (   0.0520833  -0.4510549  -0.0990185), wk =   0.0034722
        k(  124) = (   0.0520833  -0.4269986  -0.0990185), wk =   0.0034722
        k(  125) = (   0.0520833  -0.4029424  -0.0990185), wk =   0.0034722
        k(  126) = (   0.0520833  -0.3788861  -0.0990185), wk =   0.0034722
        k(  127) = (   0.0520833  -0.3548299  -0.0990185), wk =   0.0034722
        k(  128) = (   0.0520833  -0.3307736  -0.0990185), wk =   0.0034722
        k(  129) = (   0.0520833  -0.3067173  -0.0990185), wk =   0.0034722
        k(  130) = (   0.0520833  -0.2826611  -0.0990185), wk =   0.0034722
        k(  131) = (   0.0520833  -0.2586048  -0.0990185), wk =   0.0034722
        k(  132) = (   0.0520833  -0.2345485  -0.0990185), wk =   0.0034722
        k(  133) = (   0.0520833  -0.2104923  -0.0990185), wk =   0.0034722
        k(  134) = (   0.0520833  -0.1864360  -0.0990185), wk =   0.0034722
        k(  135) = (   0.0520833  -0.1623798  -0.0990185), wk =   0.0034722
        k(  136) = (   0.0520833  -0.1383235  -0.0990185), wk =   0.0034722
        k(  137) = (   0.0520833  -0.1142672  -0.0990185), wk =   0.0034722
        k(  138) = (   0.0520833  -0.0902110  -0.0990185), wk =   0.0017361
        k(  139) = (   0.0729167   0.0420985  -0.0990185), wk =   0.0017361
        k(  140) = (   0.0729167   0.0661547  -0.0990185), wk =   0.0034722
        k(  141) = (   0.0729167   0.0902110  -0.0990185), wk =   0.0034722
        k(  142) = (   0.0729167   0.1142672  -0.0990185), wk =   0.0034722
        k(  143) = (   0.0729167   0.1383235  -0.0990185), wk =   0.0034722
        k(  144) = (   0.0729167   0.1623798  -0.0990185), wk =   0.0034722
        k(  145) = (   0.0729167   0.1864360  -0.0990185), wk =   0.0034722
        k(  146) = (   0.0729167   0.2104923  -0.0990185), wk =   0.0034722
        k(  147) = (   0.0729167   0.2345485  -0.0990185), wk =   0.0034722
        k(  148) = (   0.0729167   0.2586048  -0.0990185), wk =   0.0034722
        k(  149) = (   0.0729167   0.2826611  -0.0990185), wk =   0.0034722
        k(  150) = (   0.0729167   0.3067173  -0.0990185), wk =   0.0034722
        k(  151) = (   0.0729167   0.3307736  -0.0990185), wk =   0.0034722
        k(  152) = (   0.0729167   0.3548299  -0.0990185), wk =   0.0034722
        k(  153) = (   0.0729167   0.3788861  -0.0990185), wk =   0.0034722
        k(  154) = (   0.0729167   0.4029424  -0.0990185), wk =   0.0034722
        k(  155) = (   0.0729167   0.4269986  -0.0990185), wk =   0.0034722
        k(  156) = (   0.0729167   0.4510549  -0.0990185), wk =   0.0034722
        k(  157) = (   0.0729167   0.4751112  -0.0990185), wk =   0.0034722
        k(  158) = (   0.0729167   0.4991674  -0.0990185), wk =   0.0034722
        k(  159) = (   0.0729167   0.5232237  -0.0990185), wk =   0.0034722
        k(  160) = (   0.0729167  -0.6074206  -0.0990185), wk =   0.0034722
        k(  161) = (   0.0729167  -0.5833643  -0.0990185), wk =   0.0034722
        k(  162) = (   0.0729167  -0.5593081  -0.0990185), wk =   0.0034722
        k(  163) = (   0.0729167  -0.5352518  -0.0990185), wk =   0.0034722
        k(  164) = (   0.0729167  -0.5111956  -0.0990185), wk =   0.0034722
        k(  165) = (   0.0729167  -0.4871393  -0.0990185), wk =   0.0034722
        k(  166) = (   0.0729167  -0.4630830  -0.0990185), wk =   0.0034722
        k(  167) = (   0.0729167  -0.4390268  -0.0990185), wk =   0.0034722
        k(  168) = (   0.0729167  -0.4149705  -0.0990185), wk =   0.0034722
        k(  169) = (   0.0729167  -0.3909142  -0.0990185), wk =   0.0034722
        k(  170) = (   0.0729167  -0.3668580  -0.0990185), wk =   0.0034722
        k(  171) = (   0.0729167  -0.3428017  -0.0990185), wk =   0.0034722
        k(  172) = (   0.0729167  -0.3187455  -0.0990185), wk =   0.0034722
        k(  173) = (   0.0729167  -0.2946892  -0.0990185), wk =   0.0034722
        k(  174) = (   0.0729167  -0.2706329  -0.0990185), wk =   0.0034722
        k(  175) = (   0.0729167  -0.2465767  -0.0990185), wk =   0.0034722
        k(  176) = (   0.0729167  -0.2225204  -0.0990185), wk =   0.0034722
        k(  177) = (   0.0729167  -0.1984642  -0.0990185), wk =   0.0034722
        k(  178) = (   0.0729167  -0.1744079  -0.0990185), wk =   0.0034722
        k(  179) = (   0.0729167  -0.1503516  -0.0990185), wk =   0.0034722
        k(  180) = (   0.0729167  -0.1262954  -0.0990185), wk =   0.0017361
        k(  181) = (   0.0937500   0.0541266  -0.0990185), wk =   0.0017361
        k(  182) = (   0.0937500   0.0781828  -0.0990185), wk =   0.0034722
        k(  183) = (   0.0937500   0.1022391  -0.0990185), wk =   0.0034722
        k(  184) = (   0.0937500   0.1262954  -0.0990185), wk =   0.0034722
        k(  185) = (   0.0937500   0.1503516  -0.0990185), wk =   0.0034722
        k(  186) = (   0.0937500   0.1744079  -0.0990185), wk =   0.0034722
        k(  187) = (   0.0937500   0.1984642  -0.0990185), wk =   0.0034722
        k(  188) = (   0.0937500   0.2225204  -0.0990185), wk =   0.0034722
        k(  189) = (   0.0937500   0.2465767  -0.0990185), wk =   0.0034722
        k(  190) = (   0.0937500   0.2706329  -0.0990185), wk =   0.0034722
        k(  191) = (   0.0937500   0.2946892  -0.0990185), wk =   0.0034722
        k(  192) = (   0.0937500   0.3187455  -0.0990185), wk =   0.0034722
        k(  193) = (   0.0937500   0.3428017  -0.0990185), wk =   0.0034722
        k(  194) = (   0.0937500   0.3668580  -0.0990185), wk =   0.0034722
        k(  195) = (   0.0937500   0.3909142  -0.0990185), wk =   0.0034722
        k(  196) = (   0.0937500   0.4149705  -0.0990185), wk =   0.0034722
        k(  197) = (   0.0937500   0.4390268  -0.0990185), wk =   0.0034722
        k(  198) = (   0.0937500   0.4630830  -0.0990185), wk =   0.0034722
        k(  199) = (   0.0937500   0.4871393  -0.0990185), wk =   0.0034722
        k(  200) = (   0.0937500   0.5111956  -0.0990185), wk =   0.0034722
        k(  201) = (   0.0937500  -0.6194487  -0.0990185), wk =   0.0034722
        k(  202) = (   0.0937500  -0.5953925  -0.0990185), wk =   0.0034722
        k(  203) = (   0.0937500  -0.5713362  -0.0990185), wk =   0.0034722
        k(  204) = (   0.0937500  -0.5472799  -0.0990185), wk =   0.0034722
        k(  205) = (   0.0937500  -0.5232237  -0.0990185), wk =   0.0034722
        k(  206) = (   0.0937500  -0.4991674  -0.0990185), wk =   0.0034722
        k(  207) = (   0.0937500  -0.4751112  -0.0990185), wk =   0.0034722
        k(  208) = (   0.0937500  -0.4510549  -0.0990185), wk =   0.0034722
        k(  209) = (   0.0937500  -0.4269986  -0.0990185), wk =   0.0034722
        k(  210) = (   0.0937500  -0.4029424  -0.0990185), wk =   0.0034722
        k(  211) = (   0.0937500  -0.3788861  -0.0990185), wk =   0.0034722
        k(  212) = (   0.0937500  -0.3548299  -0.0990185), wk =   0.0034722
        k(  213) = (   0.0937500  -0.3307736  -0.0990185), wk =   0.0034722
        k(  214) = (   0.0937500  -0.3067173  -0.0990185), wk =   0.0034722
        k(  215) = (   0.0937500  -0.2826611  -0.0990185), wk =   0.0034722
        k(  216) = (   0.0937500  -0.2586048  -0.0990185), wk =   0.0034722
        k(  217) = (   0.0937500  -0.2345485  -0.0990185), wk =   0.0034722
        k(  218) = (   0.0937500  -0.2104923  -0.0990185), wk =   0.0034722
        k(  219) = (   0.0937500  -0.1864360  -0.0990185), wk =   0.0034722
        k(  220) = (   0.0937500  -0.1623798  -0.0990185), wk =   0.0017361
        k(  221) = (   0.1145833   0.0661547  -0.0990185), wk =   0.0017361
        k(  222) = (   0.1145833   0.0902110  -0.0990185), wk =   0.0034722
        k(  223) = (   0.1145833   0.1142672  -0.0990185), wk =   0.0034722
        k(  224) = (   0.1145833   0.1383235  -0.0990185), wk =   0.0034722
        k(  225) = (   0.1145833   0.1623798  -0.0990185), wk =   0.0034722
        k(  226) = (   0.1145833   0.1864360  -0.0990185), wk =   0.0034722
        k(  227) = (   0.1145833   0.2104923  -0.0990185), wk =   0.0034722
        k(  228) = (   0.1145833   0.2345485  -0.0990185), wk =   0.0034722
        k(  229) = (   0.1145833   0.2586048  -0.0990185), wk =   0.0034722
        k(  230) = (   0.1145833   0.2826611  -0.0990185), wk =   0.0034722
        k(  231) = (   0.1145833   0.3067173  -0.0990185), wk =   0.0034722
        k(  232) = (   0.1145833   0.3307736  -0.0990185), wk =   0.0034722
        k(  233) = (   0.1145833   0.3548299  -0.0990185), wk =   0.0034722
        k(  234) = (   0.1145833   0.3788861  -0.0990185), wk =   0.0034722
        k(  235) = (   0.1145833   0.4029424  -0.0990185), wk =   0.0034722
        k(  236) = (   0.1145833   0.4269986  -0.0990185), wk =   0.0034722
        k(  237) = (   0.1145833   0.4510549  -0.0990185), wk =   0.0034722
        k(  238) = (   0.1145833   0.4751112  -0.0990185), wk =   0.0034722
        k(  239) = (   0.1145833   0.4991674  -0.0990185), wk =   0.0034722
        k(  240) = (   0.1145833  -0.6314769  -0.0990185), wk =   0.0034722
        k(  241) = (   0.1145833  -0.6074206  -0.0990185), wk =   0.0034722
        k(  242) = (   0.1145833  -0.5833643  -0.0990185), wk =   0.0034722
        k(  243) = (   0.1145833  -0.5593081  -0.0990185), wk =   0.0034722
        k(  244) = (   0.1145833  -0.5352518  -0.0990185), wk =   0.0034722
        k(  245) = (   0.1145833  -0.5111956  -0.0990185), wk =   0.0034722
        k(  246) = (   0.1145833  -0.4871393  -0.0990185), wk =   0.0034722
        k(  247) = (   0.1145833  -0.4630830  -0.0990185), wk =   0.0034722
        k(  248) = (   0.1145833  -0.4390268  -0.0990185), wk =   0.0034722
        k(  249) = (   0.1145833  -0.4149705  -0.0990185), wk =   0.0034722
        k(  250) = (   0.1145833  -0.3909142  -0.0990185), wk =   0.0034722
        k(  251) = (   0.1145833  -0.3668580  -0.0990185), wk =   0.0034722
        k(  252) = (   0.1145833  -0.3428017  -0.0990185), wk =   0.0034722
        k(  253) = (   0.1145833  -0.3187455  -0.0990185), wk =   0.0034722
        k(  254) = (   0.1145833  -0.2946892  -0.0990185), wk =   0.0034722
        k(  255) = (   0.1145833  -0.2706329  -0.0990185), wk =   0.0034722
        k(  256) = (   0.1145833  -0.2465767  -0.0990185), wk =   0.0034722
        k(  257) = (   0.1145833  -0.2225204  -0.0990185), wk =   0.0034722
        k(  258) = (   0.1145833  -0.1984642  -0.0990185), wk =   0.0017361
        k(  259) = (   0.1354167   0.0781828  -0.0990185), wk =   0.0017361
        k(  260) = (   0.1354167   0.1022391  -0.0990185), wk =   0.0034722
        k(  261) = (   0.1354167   0.1262954  -0.0990185), wk =   0.0034722
        k(  262) = (   0.1354167   0.1503516  -0.0990185), wk =   0.0034722
        k(  263) = (   0.1354167   0.1744079  -0.0990185), wk =   0.0034722
        k(  264) = (   0.1354167   0.1984642  -0.0990185), wk =   0.0034722
        k(  265) = (   0.1354167   0.2225204  -0.0990185), wk =   0.0034722
        k(  266) = (   0.1354167   0.2465767  -0.0990185), wk =   0.0034722
        k(  267) = (   0.1354167   0.2706329  -0.0990185), wk =   0.0034722
        k(  268) = (   0.1354167   0.2946892  -0.0990185), wk =   0.0034722
        k(  269) = (   0.1354167   0.3187455  -0.0990185), wk =   0.0034722
        k(  270) = (   0.1354167   0.3428017  -0.0990185), wk =   0.0034722
        k(  271) = (   0.1354167   0.3668580  -0.0990185), wk =   0.0034722
        k(  272) = (   0.1354167   0.3909142  -0.0990185), wk =   0.0034722
        k(  273) = (   0.1354167   0.4149705  -0.0990185), wk =   0.0034722
        k(  274) = (   0.1354167   0.4390268  -0.0990185), wk =   0.0034722
        k(  275) = (   0.1354167   0.4630830  -0.0990185), wk =   0.0034722
        k(  276) = (   0.1354167   0.4871393  -0.0990185), wk =   0.0034722
        k(  277) = (   0.1354167  -0.6435050  -0.0990185), wk =   0.0034722
        k(  278) = (   0.1354167  -0.6194487  -0.0990185), wk =   0.0034722
        k(  279) = (   0.1354167  -0.5953925  -0.0990185), wk =   0.0034722
        k(  280) = (   0.1354167  -0.5713362  -0.0990185), wk =   0.0034722
        k(  281) = (   0.1354167  -0.5472799  -0.0990185), wk =   0.0034722
        k(  282) = (   0.1354167  -0.5232237  -0.0990185), wk =   0.0034722
        k(  283) = (   0.1354167  -0.4991674  -0.0990185), wk =   0.0034722
        k(  284) = (   0.1354167  -0.4751112  -0.0990185), wk =   0.0034722
        k(  285) = (   0.1354167  -0.4510549  -0.0990185), wk =   0.0034722
        k(  286) = (   0.1354167  -0.4269986  -0.0990185), wk =   0.0034722
        k(  287) = (   0.1354167  -0.4029424  -0.0990185), wk =   0.0034722
        k(  288) = (   0.1354167  -0.3788861  -0.0990185), wk =   0.0034722
        k(  289) = (   0.1354167  -0.3548299  -0.0990185), wk =   0.0034722
        k(  290) = (   0.1354167  -0.3307736  -0.0990185), wk =   0.0034722
        k(  291) = (   0.1354167  -0.3067173  -0.0990185), wk =   0.0034722
        k(  292) = (   0.1354167  -0.2826611  -0.0990185), wk =   0.0034722
        k(  293) = (   0.1354167  -0.2586048  -0.0990185), wk =   0.0034722
        k(  294) = (   0.1354167  -0.2345485  -0.0990185), wk =   0.0017361
        k(  295) = (   0.1562500   0.0902110  -0.0990185), wk =   0.0017361
        k(  296) = (   0.1562500   0.1142672  -0.0990185), wk =   0.0034722
        k(  297) = (   0.1562500   0.1383235  -0.0990185), wk =   0.0034722
        k(  298) = (   0.1562500   0.1623798  -0.0990185), wk =   0.0034722
        k(  299) = (   0.1562500   0.1864360  -0.0990185), wk =   0.0034722
        k(  300) = (   0.1562500   0.2104923  -0.0990185), wk =   0.0034722
        k(  301) = (   0.1562500   0.2345485  -0.0990185), wk =   0.0034722
        k(  302) = (   0.1562500   0.2586048  -0.0990185), wk =   0.0034722
        k(  303) = (   0.1562500   0.2826611  -0.0990185), wk =   0.0034722
        k(  304) = (   0.1562500   0.3067173  -0.0990185), wk =   0.0034722
        k(  305) = (   0.1562500   0.3307736  -0.0990185), wk =   0.0034722
        k(  306) = (   0.1562500   0.3548299  -0.0990185), wk =   0.0034722
        k(  307) = (   0.1562500   0.3788861  -0.0990185), wk =   0.0034722
        k(  308) = (   0.1562500   0.4029424  -0.0990185), wk =   0.0034722
        k(  309) = (   0.1562500   0.4269986  -0.0990185), wk =   0.0034722
        k(  310) = (   0.1562500   0.4510549  -0.0990185), wk =   0.0034722
        k(  311) = (   0.1562500   0.4751112  -0.0990185), wk =   0.0034722
        k(  312) = (   0.1562500  -0.6555331  -0.0990185), wk =   0.0034722
        k(  313) = (   0.1562500  -0.6314769  -0.0990185), wk =   0.0034722
        k(  314) = (   0.1562500  -0.6074206  -0.0990185), wk =   0.0034722
        k(  315) = (   0.1562500  -0.5833643  -0.0990185), wk =   0.0034722
        k(  316) = (   0.1562500  -0.5593081  -0.0990185), wk =   0.0034722
        k(  317) = (   0.1562500  -0.5352518  -0.0990185), wk =   0.0034722
        k(  318) = (   0.1562500  -0.5111956  -0.0990185), wk =   0.0034722
        k(  319) = (   0.1562500  -0.4871393  -0.0990185), wk =   0.0034722
        k(  320) = (   0.1562500  -0.4630830  -0.0990185), wk =   0.0034722
        k(  321) = (   0.1562500  -0.4390268  -0.0990185), wk =   0.0034722
        k(  322) = (   0.1562500  -0.4149705  -0.0990185), wk =   0.0034722
        k(  323) = (   0.1562500  -0.3909142  -0.0990185), wk =   0.0034722
        k(  324) = (   0.1562500  -0.3668580  -0.0990185), wk =   0.0034722
        k(  325) = (   0.1562500  -0.3428017  -0.0990185), wk =   0.0034722
        k(  326) = (   0.1562500  -0.3187455  -0.0990185), wk =   0.0034722
        k(  327) = (   0.1562500  -0.2946892  -0.0990185), wk =   0.0034722
        k(  328) = (   0.1562500  -0.2706329  -0.0990185), wk =   0.0017361
        k(  329) = (   0.1770833   0.1022391  -0.0990185), wk =   0.0017361
        k(  330) = (   0.1770833   0.1262954  -0.0990185), wk =   0.0034722
        k(  331) = (   0.1770833   0.1503516  -0.0990185), wk =   0.0034722
        k(  332) = (   0.1770833   0.1744079  -0.0990185), wk =   0.0034722
        k(  333) = (   0.1770833   0.1984642  -0.0990185), wk =   0.0034722
        k(  334) = (   0.1770833   0.2225204  -0.0990185), wk =   0.0034722
        k(  335) = (   0.1770833   0.2465767  -0.0990185), wk =   0.0034722
        k(  336) = (   0.1770833   0.2706329  -0.0990185), wk =   0.0034722
        k(  337) = (   0.1770833   0.2946892  -0.0990185), wk =   0.0034722
        k(  338) = (   0.1770833   0.3187455  -0.0990185), wk =   0.0034722
        k(  339) = (   0.1770833   0.3428017  -0.0990185), wk =   0.0034722
        k(  340) = (   0.1770833   0.3668580  -0.0990185), wk =   0.0034722
        k(  341) = (   0.1770833   0.3909142  -0.0990185), wk =   0.0034722
        k(  342) = (   0.1770833   0.4149705  -0.0990185), wk =   0.0034722
        k(  343) = (   0.1770833   0.4390268  -0.0990185), wk =   0.0034722
        k(  344) = (   0.1770833   0.4630830  -0.0990185), wk =   0.0034722
        k(  345) = (   0.1770833  -0.6675612  -0.0990185), wk =   0.0034722
        k(  346) = (   0.1770833  -0.6435050  -0.0990185), wk =   0.0034722
        k(  347) = (   0.1770833  -0.6194487  -0.0990185), wk =   0.0034722
        k(  348) = (   0.1770833  -0.5953925  -0.0990185), wk =   0.0034722
        k(  349) = (   0.1770833  -0.5713362  -0.0990185), wk =   0.0034722
        k(  350) = (   0.1770833  -0.5472799  -0.0990185), wk =   0.0034722
        k(  351) = (   0.1770833  -0.5232237  -0.0990185), wk =   0.0034722
        k(  352) = (   0.1770833  -0.4991674  -0.0990185), wk =   0.0034722
        k(  353) = (   0.1770833  -0.4751112  -0.0990185), wk =   0.0034722
        k(  354) = (   0.1770833  -0.4510549  -0.0990185), wk =   0.0034722
        k(  355) = (   0.1770833  -0.4269986  -0.0990185), wk =   0.0034722
        k(  356) = (   0.1770833  -0.4029424  -0.0990185), wk =   0.0034722
        k(  357) = (   0.1770833  -0.3788861  -0.0990185), wk =   0.0034722
        k(  358) = (   0.1770833  -0.3548299  -0.0990185), wk =   0.0034722
        k(  359) = (   0.1770833  -0.3307736  -0.0990185), wk =   0.0034722
        k(  360) = (   0.1770833  -0.3067173  -0.0990185), wk =   0.0017361
        k(  361) = (   0.1979167   0.1142672  -0.0990185), wk =   0.0017361
        k(  362) = (   0.1979167   0.1383235  -0.0990185), wk =   0.0034722
        k(  363) = (   0.1979167   0.1623798  -0.0990185), wk =   0.0034722
        k(  364) = (   0.1979167   0.1864360  -0.0990185), wk =   0.0034722
        k(  365) = (   0.1979167   0.2104923  -0.0990185), wk =   0.0034722
        k(  366) = (   0.1979167   0.2345485  -0.0990185), wk =   0.0034722
        k(  367) = (   0.1979167   0.2586048  -0.0990185), wk =   0.0034722
        k(  368) = (   0.1979167   0.2826611  -0.0990185), wk =   0.0034722
        k(  369) = (   0.1979167   0.3067173  -0.0990185), wk =   0.0034722
        k(  370) = (   0.1979167   0.3307736  -0.0990185), wk =   0.0034722
        k(  371) = (   0.1979167   0.3548299  -0.0990185), wk =   0.0034722
        k(  372) = (   0.1979167   0.3788861  -0.0990185), wk =   0.0034722
        k(  373) = (   0.1979167   0.4029424  -0.0990185), wk =   0.0034722
        k(  374) = (   0.1979167   0.4269986  -0.0990185), wk =   0.0034722
        k(  375) = (   0.1979167   0.4510549  -0.0990185), wk =   0.0034722
        k(  376) = (   0.1979167  -0.6795894  -0.0990185), wk =   0.0034722
        k(  377) = (   0.1979167  -0.6555331  -0.0990185), wk =   0.0034722
        k(  378) = (   0.1979167  -0.6314769  -0.0990185), wk =   0.0034722
        k(  379) = (   0.1979167  -0.6074206  -0.0990185), wk =   0.0034722
        k(  380) = (   0.1979167  -0.5833643  -0.0990185), wk =   0.0034722
        k(  381) = (   0.1979167  -0.5593081  -0.0990185), wk =   0.0034722
        k(  382) = (   0.1979167  -0.5352518  -0.0990185), wk =   0.0034722
        k(  383) = (   0.1979167  -0.5111956  -0.0990185), wk =   0.0034722
        k(  384) = (   0.1979167  -0.4871393  -0.0990185), wk =   0.0034722
        k(  385) = (   0.1979167  -0.4630830  -0.0990185), wk =   0.0034722
        k(  386) = (   0.1979167  -0.4390268  -0.0990185), wk =   0.0034722
        k(  387) = (   0.1979167  -0.4149705  -0.0990185), wk =   0.0034722
        k(  388) = (   0.1979167  -0.3909142  -0.0990185), wk =   0.0034722
        k(  389) = (   0.1979167  -0.3668580  -0.0990185), wk =   0.0034722
        k(  390) = (   0.1979167  -0.3428017  -0.0990185), wk =   0.0017361
        k(  391) = (   0.2187500   0.1262954  -0.0990185), wk =   0.0017361
        k(  392) = (   0.2187500   0.1503516  -0.0990185), wk =   0.0034722
        k(  393) = (   0.2187500   0.1744079  -0.0990185), wk =   0.0034722
        k(  394) = (   0.2187500   0.1984642  -0.0990185), wk =   0.0034722
        k(  395) = (   0.2187500   0.2225204  -0.0990185), wk =   0.0034722
        k(  396) = (   0.2187500   0.2465767  -0.0990185), wk =   0.0034722
        k(  397) = (   0.2187500   0.2706329  -0.0990185), wk =   0.0034722
        k(  398) = (   0.2187500   0.2946892  -0.0990185), wk =   0.0034722
        k(  399) = (   0.2187500   0.3187455  -0.0990185), wk =   0.0034722
        k(  400) = (   0.2187500   0.3428017  -0.0990185), wk =   0.0034722
        k(  401) = (   0.2187500   0.3668580  -0.0990185), wk =   0.0034722
        k(  402) = (   0.2187500   0.3909142  -0.0990185), wk =   0.0034722
        k(  403) = (   0.2187500   0.4149705  -0.0990185), wk =   0.0034722
        k(  404) = (   0.2187500   0.4390268  -0.0990185), wk =   0.0034722
        k(  405) = (   0.2187500  -0.6916175  -0.0990185), wk =   0.0034722
        k(  406) = (   0.2187500  -0.6675612  -0.0990185), wk =   0.0034722
        k(  407) = (   0.2187500  -0.6435050  -0.0990185), wk =   0.0034722
        k(  408) = (   0.2187500  -0.6194487  -0.0990185), wk =   0.0034722
        k(  409) = (   0.2187500  -0.5953925  -0.0990185), wk =   0.0034722
        k(  410) = (   0.2187500  -0.5713362  -0.0990185), wk =   0.0034722
        k(  411) = (   0.2187500  -0.5472799  -0.0990185), wk =   0.0034722
        k(  412) = (   0.2187500  -0.5232237  -0.0990185), wk =   0.0034722
        k(  413) = (   0.2187500  -0.4991674  -0.0990185), wk =   0.0034722
        k(  414) = (   0.2187500  -0.4751112  -0.0990185), wk =   0.0034722
        k(  415) = (   0.2187500  -0.4510549  -0.0990185), wk =   0.0034722
        k(  416) = (   0.2187500  -0.4269986  -0.0990185), wk =   0.0034722
        k(  417) = (   0.2187500  -0.4029424  -0.0990185), wk =   0.0034722
        k(  418) = (   0.2187500  -0.3788861  -0.0990185), wk =   0.0017361
        k(  419) = (   0.2395833   0.1383235  -0.0990185), wk =   0.0017361
        k(  420) = (   0.2395833   0.1623798  -0.0990185), wk =   0.0034722
        k(  421) = (   0.2395833   0.1864360  -0.0990185), wk =   0.0034722
        k(  422) = (   0.2395833   0.2104923  -0.0990185), wk =   0.0034722
        k(  423) = (   0.2395833   0.2345485  -0.0990185), wk =   0.0034722
        k(  424) = (   0.2395833   0.2586048  -0.0990185), wk =   0.0034722
        k(  425) = (   0.2395833   0.2826611  -0.0990185), wk =   0.0034722
        k(  426) = (   0.2395833   0.3067173  -0.0990185), wk =   0.0034722
        k(  427) = (   0.2395833   0.3307736  -0.0990185), wk =   0.0034722
        k(  428) = (   0.2395833   0.3548299  -0.0990185), wk =   0.0034722
        k(  429) = (   0.2395833   0.3788861  -0.0990185), wk =   0.0034722
        k(  430) = (   0.2395833   0.4029424  -0.0990185), wk =   0.0034722
        k(  431) = (   0.2395833   0.4269986  -0.0990185), wk =   0.0034722
        k(  432) = (   0.2395833  -0.7036456  -0.0990185), wk =   0.0034722
        k(  433) = (   0.2395833  -0.6795894  -0.0990185), wk =   0.0034722
        k(  434) = (   0.2395833  -0.6555331  -0.0990185), wk =   0.0034722
        k(  435) = (   0.2395833  -0.6314769  -0.0990185), wk =   0.0034722
        k(  436) = (   0.2395833  -0.6074206  -0.0990185), wk =   0.0034722
        k(  437) = (   0.2395833  -0.5833643  -0.0990185), wk =   0.0034722
        k(  438) = (   0.2395833  -0.5593081  -0.0990185), wk =   0.0034722
        k(  439) = (   0.2395833  -0.5352518  -0.0990185), wk =   0.0034722
        k(  440) = (   0.2395833  -0.5111956  -0.0990185), wk =   0.0034722
        k(  441) = (   0.2395833  -0.4871393  -0.0990185), wk =   0.0034722
        k(  442) = (   0.2395833  -0.4630830  -0.0990185), wk =   0.0034722
        k(  443) = (   0.2395833  -0.4390268  -0.0990185), wk =   0.0034722
        k(  444) = (   0.2395833  -0.4149705  -0.0990185), wk =   0.0017361
        k(  445) = (   0.2604167   0.1503516  -0.0990185), wk =   0.0017361
        k(  446) = (   0.2604167   0.1744079  -0.0990185), wk =   0.0034722
        k(  447) = (   0.2604167   0.1984642  -0.0990185), wk =   0.0034722
        k(  448) = (   0.2604167   0.2225204  -0.0990185), wk =   0.0034722
        k(  449) = (   0.2604167   0.2465767  -0.0990185), wk =   0.0034722
        k(  450) = (   0.2604167   0.2706329  -0.0990185), wk =   0.0034722
        k(  451) = (   0.2604167   0.2946892  -0.0990185), wk =   0.0034722
        k(  452) = (   0.2604167   0.3187455  -0.0990185), wk =   0.0034722
        k(  453) = (   0.2604167   0.3428017  -0.0990185), wk =   0.0034722
        k(  454) = (   0.2604167   0.3668580  -0.0990185), wk =   0.0034722
        k(  455) = (   0.2604167   0.3909142  -0.0990185), wk =   0.0034722
        k(  456) = (   0.2604167   0.4149705  -0.0990185), wk =   0.0034722
        k(  457) = (   0.2604167  -0.7156738  -0.0990185), wk =   0.0034722
        k(  458) = (   0.2604167  -0.6916175  -0.0990185), wk =   0.0034722
        k(  459) = (   0.2604167  -0.6675612  -0.0990185), wk =   0.0034722
        k(  460) = (   0.2604167  -0.6435050  -0.0990185), wk =   0.0034722
        k(  461) = (   0.2604167  -0.6194487  -0.0990185), wk =   0.0034722
        k(  462) = (   0.2604167  -0.5953925  -0.0990185), wk =   0.0034722
        k(  463) = (   0.2604167  -0.5713362  -0.0990185), wk =   0.0034722
        k(  464) = (   0.2604167  -0.5472799  -0.0990185), wk =   0.0034722
        k(  465) = (   0.2604167  -0.5232237  -0.0990185), wk =   0.0034722
        k(  466) = (   0.2604167  -0.4991674  -0.0990185), wk =   0.0034722
        k(  467) = (   0.2604167  -0.4751112  -0.0990185), wk =   0.0034722
        k(  468) = (   0.2604167  -0.4510549  -0.0990185), wk =   0.0017361
        k(  469) = (   0.2812500   0.1623798  -0.0990185), wk =   0.0017361
        k(  470) = (   0.2812500   0.1864360  -0.0990185), wk =   0.0034722
        k(  471) = (   0.2812500   0.2104923  -0.0990185), wk =   0.0034722
        k(  472) = (   0.2812500   0.2345485  -0.0990185), wk =   0.0034722
        k(  473) = (   0.2812500   0.2586048  -0.0990185), wk =   0.0034722
        k(  474) = (   0.2812500   0.2826611  -0.0990185), wk =   0.0034722
        k(  475) = (   0.2812500   0.3067173  -0.0990185), wk =   0.0034722
        k(  476) = (   0.2812500   0.3307736  -0.0990185), wk =   0.0034722
        k(  477) = (   0.2812500   0.3548299  -0.0990185), wk =   0.0034722
        k(  478) = (   0.2812500   0.3788861  -0.0990185), wk =   0.0034722
        k(  479) = (   0.2812500   0.4029424  -0.0990185), wk =   0.0034722
        k(  480) = (   0.2812500  -0.7277019  -0.0990185), wk =   0.0034722
        k(  481) = (   0.2812500  -0.7036456  -0.0990185), wk =   0.0034722
        k(  482) = (   0.2812500  -0.6795894  -0.0990185), wk =   0.0034722
        k(  483) = (   0.2812500  -0.6555331  -0.0990185), wk =   0.0034722
        k(  484) = (   0.2812500  -0.6314769  -0.0990185), wk =   0.0034722
        k(  485) = (   0.2812500  -0.6074206  -0.0990185), wk =   0.0034722
        k(  486) = (   0.2812500  -0.5833643  -0.0990185), wk =   0.0034722
        k(  487) = (   0.2812500  -0.5593081  -0.0990185), wk =   0.0034722
        k(  488) = (   0.2812500  -0.5352518  -0.0990185), wk =   0.0034722
        k(  489) = (   0.2812500  -0.5111956  -0.0990185), wk =   0.0034722
        k(  490) = (   0.2812500  -0.4871393  -0.0990185), wk =   0.0017361
        k(  491) = (   0.3020833   0.1744079  -0.0990185), wk =   0.0017361
        k(  492) = (   0.3020833   0.1984642  -0.0990185), wk =   0.0034722
        k(  493) = (   0.3020833   0.2225204  -0.0990185), wk =   0.0034722
        k(  494) = (   0.3020833   0.2465767  -0.0990185), wk =   0.0034722
        k(  495) = (   0.3020833   0.2706329  -0.0990185), wk =   0.0034722
        k(  496) = (   0.3020833   0.2946892  -0.0990185), wk =   0.0034722
        k(  497) = (   0.3020833   0.3187455  -0.0990185), wk =   0.0034722
        k(  498) = (   0.3020833   0.3428017  -0.0990185), wk =   0.0034722
        k(  499) = (   0.3020833   0.3668580  -0.0990185), wk =   0.0034722
        k(  500) = (   0.3020833   0.3909142  -0.0990185), wk =   0.0034722
        k(  501) = (   0.3020833  -0.7397300  -0.0990185), wk =   0.0034722
        k(  502) = (   0.3020833  -0.7156738  -0.0990185), wk =   0.0034722
        k(  503) = (   0.3020833  -0.6916175  -0.0990185), wk =   0.0034722
        k(  504) = (   0.3020833  -0.6675612  -0.0990185), wk =   0.0034722
        k(  505) = (   0.3020833  -0.6435050  -0.0990185), wk =   0.0034722
        k(  506) = (   0.3020833  -0.6194487  -0.0990185), wk =   0.0034722
        k(  507) = (   0.3020833  -0.5953925  -0.0990185), wk =   0.0034722
        k(  508) = (   0.3020833  -0.5713362  -0.0990185), wk =   0.0034722
        k(  509) = (   0.3020833  -0.5472799  -0.0990185), wk =   0.0034722
        k(  510) = (   0.3020833  -0.5232237  -0.0990185), wk =   0.0017361
        k(  511) = (   0.3229167   0.1864360  -0.0990185), wk =   0.0017361
        k(  512) = (   0.3229167   0.2104923  -0.0990185), wk =   0.0034722
        k(  513) = (   0.3229167   0.2345485  -0.0990185), wk =   0.0034722
        k(  514) = (   0.3229167   0.2586048  -0.0990185), wk =   0.0034722
        k(  515) = (   0.3229167   0.2826611  -0.0990185), wk =   0.0034722
        k(  516) = (   0.3229167   0.3067173  -0.0990185), wk =   0.0034722
        k(  517) = (   0.3229167   0.3307736  -0.0990185), wk =   0.0034722
        k(  518) = (   0.3229167   0.3548299  -0.0990185), wk =   0.0034722
        k(  519) = (   0.3229167   0.3788861  -0.0990185), wk =   0.0034722
        k(  520) = (   0.3229167  -0.7517582  -0.0990185), wk =   0.0034722
        k(  521) = (   0.3229167  -0.7277019  -0.0990185), wk =   0.0034722
        k(  522) = (   0.3229167  -0.7036456  -0.0990185), wk =   0.0034722
        k(  523) = (   0.3229167  -0.6795894  -0.0990185), wk =   0.0034722
        k(  524) = (   0.3229167  -0.6555331  -0.0990185), wk =   0.0034722
        k(  525) = (   0.3229167  -0.6314769  -0.0990185), wk =   0.0034722
        k(  526) = (   0.3229167  -0.6074206  -0.0990185), wk =   0.0034722
        k(  527) = (   0.3229167  -0.5833643  -0.0990185), wk =   0.0034722
        k(  528) = (   0.3229167  -0.5593081  -0.0990185), wk =   0.0017361
        k(  529) = (   0.3437500   0.1984642  -0.0990185), wk =   0.0017361
        k(  530) = (   0.3437500   0.2225204  -0.0990185), wk =   0.0034722
        k(  531) = (   0.3437500   0.2465767  -0.0990185), wk =   0.0034722
        k(  532) = (   0.3437500   0.2706329  -0.0990185), wk =   0.0034722
        k(  533) = (   0.3437500   0.2946892  -0.0990185), wk =   0.0034722
        k(  534) = (   0.3437500   0.3187455  -0.0990185), wk =   0.0034722
        k(  535) = (   0.3437500   0.3428017  -0.0990185), wk =   0.0034722
        k(  536) = (   0.3437500   0.3668580  -0.0990185), wk =   0.0034722
        k(  537) = (   0.3437500  -0.7637863  -0.0990185), wk =   0.0034722
        k(  538) = (   0.3437500  -0.7397300  -0.0990185), wk =   0.0034722
        k(  539) = (   0.3437500  -0.7156738  -0.0990185), wk =   0.0034722
        k(  540) = (   0.3437500  -0.6916175  -0.0990185), wk =   0.0034722
        k(  541) = (   0.3437500  -0.6675612  -0.0990185), wk =   0.0034722
        k(  542) = (   0.3437500  -0.6435050  -0.0990185), wk =   0.0034722
        k(  543) = (   0.3437500  -0.6194487  -0.0990185), wk =   0.0034722
        k(  544) = (   0.3437500  -0.5953925  -0.0990185), wk =   0.0017361
        k(  545) = (   0.3645833   0.2104923  -0.0990185), wk =   0.0017361
        k(  546) = (   0.3645833   0.2345485  -0.0990185), wk =   0.0034722
        k(  547) = (   0.3645833   0.2586048  -0.0990185), wk =   0.0034722
        k(  548) = (   0.3645833   0.2826611  -0.0990185), wk =   0.0034722
        k(  549) = (   0.3645833   0.3067173  -0.0990185), wk =   0.0034722
        k(  550) = (   0.3645833   0.3307736  -0.0990185), wk =   0.0034722
        k(  551) = (   0.3645833   0.3548299  -0.0990185), wk =   0.0034722
        k(  552) = (   0.3645833  -0.7758144  -0.0990185), wk =   0.0034722
        k(  553) = (   0.3645833  -0.7517582  -0.0990185), wk =   0.0034722
        k(  554) = (   0.3645833  -0.7277019  -0.0990185), wk =   0.0034722
        k(  555) = (   0.3645833  -0.7036456  -0.0990185), wk =   0.0034722
        k(  556) = (   0.3645833  -0.6795894  -0.0990185), wk =   0.0034722
        k(  557) = (   0.3645833  -0.6555331  -0.0990185), wk =   0.0034722
        k(  558) = (   0.3645833  -0.6314769  -0.0990185), wk =   0.0017361
        k(  559) = (   0.3854167   0.2225204  -0.0990185), wk =   0.0017361
        k(  560) = (   0.3854167   0.2465767  -0.0990185), wk =   0.0034722
        k(  561) = (   0.3854167   0.2706329  -0.0990185), wk =   0.0034722
        k(  562) = (   0.3854167   0.2946892  -0.0990185), wk =   0.0034722
        k(  563) = (   0.3854167   0.3187455  -0.0990185), wk =   0.0034722
        k(  564) = (   0.3854167   0.3428017  -0.0990185), wk =   0.0034722
        k(  565) = (   0.3854167  -0.7878426  -0.0990185), wk =   0.0034722
        k(  566) = (   0.3854167  -0.7637863  -0.0990185), wk =   0.0034722
        k(  567) = (   0.3854167  -0.7397300  -0.0990185), wk =   0.0034722
        k(  568) = (   0.3854167  -0.7156738  -0.0990185), wk =   0.0034722
        k(  569) = (   0.3854167  -0.6916175  -0.0990185), wk =   0.0034722
        k(  570) = (   0.3854167  -0.6675612  -0.0990185), wk =   0.0017361
        k(  571) = (   0.4062500   0.2345485  -0.0990185), wk =   0.0017361
        k(  572) = (   0.4062500   0.2586048  -0.0990185), wk =   0.0034722
        k(  573) = (   0.4062500   0.2826611  -0.0990185), wk =   0.0034722
        k(  574) = (   0.4062500   0.3067173  -0.0990185), wk =   0.0034722
        k(  575) = (   0.4062500   0.3307736  -0.0990185), wk =   0.0034722
        k(  576) = (   0.4062500  -0.7998707  -0.0990185), wk =   0.0034722
        k(  577) = (   0.4062500  -0.7758144  -0.0990185), wk =   0.0034722
        k(  578) = (   0.4062500  -0.7517582  -0.0990185), wk =   0.0034722
        k(  579) = (   0.4062500  -0.7277019  -0.0990185), wk =   0.0034722
        k(  580) = (   0.4062500  -0.7036456  -0.0990185), wk =   0.0017361
        k(  581) = (   0.4270833   0.2465767  -0.0990185), wk =   0.0017361
        k(  582) = (   0.4270833   0.2706329  -0.0990185), wk =   0.0034722
        k(  583) = (   0.4270833   0.2946892  -0.0990185), wk =   0.0034722
        k(  584) = (   0.4270833   0.3187455  -0.0990185), wk =   0.0034722
        k(  585) = (   0.4270833  -0.8118988  -0.0990185), wk =   0.0034722
        k(  586) = (   0.4270833  -0.7878426  -0.0990185), wk =   0.0034722
        k(  587) = (   0.4270833  -0.7637863  -0.0990185), wk =   0.0034722
        k(  588) = (   0.4270833  -0.7397300  -0.0990185), wk =   0.0017361
        k(  589) = (   0.4479167   0.2586048  -0.0990185), wk =   0.0017361
        k(  590) = (   0.4479167   0.2826611  -0.0990185), wk =   0.0034722
        k(  591) = (   0.4479167   0.3067173  -0.0990185), wk =   0.0034722
        k(  592) = (   0.4479167  -0.8239269  -0.0990185), wk =   0.0034722
        k(  593) = (   0.4479167  -0.7998707  -0.0990185), wk =   0.0034722
        k(  594) = (   0.4479167  -0.7758144  -0.0990185), wk =   0.0017361
        k(  595) = (   0.4687500   0.2706329  -0.0990185), wk =   0.0017361
        k(  596) = (   0.4687500   0.2946892  -0.0990185), wk =   0.0034722
        k(  597) = (   0.4687500  -0.8359551  -0.0990185), wk =   0.0034722
        k(  598) = (   0.4687500  -0.8118988  -0.0990185), wk =   0.0017361
        k(  599) = (   0.4895833   0.2826611  -0.0990185), wk =   0.0017361
        k(  600) = (   0.4895833  -0.8479832  -0.0990185), wk =   0.0017361

                       cryst. coord.
        k(    1) = (   0.0104167   0.0104167  -0.5000000), wk =   0.0017361
        k(    2) = (   0.0104167   0.0312500  -0.5000000), wk =   0.0034722
        k(    3) = (   0.0104167   0.0520833  -0.5000000), wk =   0.0034722
        k(    4) = (   0.0104167   0.0729167  -0.5000000), wk =   0.0034722
        k(    5) = (   0.0104167   0.0937500  -0.5000000), wk =   0.0034722
        k(    6) = (   0.0104167   0.1145833  -0.5000000), wk =   0.0034722
        k(    7) = (   0.0104167   0.1354167  -0.5000000), wk =   0.0034722
        k(    8) = (   0.0104167   0.1562500  -0.5000000), wk =   0.0034722
        k(    9) = (   0.0104167   0.1770833  -0.5000000), wk =   0.0034722
        k(   10) = (   0.0104167   0.1979167  -0.5000000), wk =   0.0034722
        k(   11) = (   0.0104167   0.2187500  -0.5000000), wk =   0.0034722
        k(   12) = (   0.0104167   0.2395833  -0.5000000), wk =   0.0034722
        k(   13) = (   0.0104167   0.2604167  -0.5000000), wk =   0.0034722
        k(   14) = (   0.0104167   0.2812500  -0.5000000), wk =   0.0034722
        k(   15) = (   0.0104167   0.3020833  -0.5000000), wk =   0.0034722
        k(   16) = (   0.0104167   0.3229167  -0.5000000), wk =   0.0034722
        k(   17) = (   0.0104167   0.3437500  -0.5000000), wk =   0.0034722
        k(   18) = (   0.0104167   0.3645833  -0.5000000), wk =   0.0034722
        k(   19) = (   0.0104167   0.3854167  -0.5000000), wk =   0.0034722
        k(   20) = (   0.0104167   0.4062500  -0.5000000), wk =   0.0034722
        k(   21) = (   0.0104167   0.4270833  -0.5000000), wk =   0.0034722
        k(   22) = (   0.0104167   0.4479167  -0.5000000), wk =   0.0034722
        k(   23) = (   0.0104167   0.4687500  -0.5000000), wk =   0.0034722
        k(   24) = (   0.0104167   0.4895833  -0.5000000), wk =   0.0034722
        k(   25) = (   0.0104167  -0.4895833  -0.5000000), wk =   0.0034722
        k(   26) = (   0.0104167  -0.4687500  -0.5000000), wk =   0.0034722
        k(   27) = (   0.0104167  -0.4479167  -0.5000000), wk =   0.0034722
        k(   28) = (   0.0104167  -0.4270833  -0.5000000), wk =   0.0034722
        k(   29) = (   0.0104167  -0.4062500  -0.5000000), wk =   0.0034722
        k(   30) = (   0.0104167  -0.3854167  -0.5000000), wk =   0.0034722
        k(   31) = (   0.0104167  -0.3645833  -0.5000000), wk =   0.0034722
        k(   32) = (   0.0104167  -0.3437500  -0.5000000), wk =   0.0034722
        k(   33) = (   0.0104167  -0.3229167  -0.5000000), wk =   0.0034722
        k(   34) = (   0.0104167  -0.3020833  -0.5000000), wk =   0.0034722
        k(   35) = (   0.0104167  -0.2812500  -0.5000000), wk =   0.0034722
        k(   36) = (   0.0104167  -0.2604167  -0.5000000), wk =   0.0034722
        k(   37) = (   0.0104167  -0.2395833  -0.5000000), wk =   0.0034722
        k(   38) = (   0.0104167  -0.2187500  -0.5000000), wk =   0.0034722
        k(   39) = (   0.0104167  -0.1979167  -0.5000000), wk =   0.0034722
        k(   40) = (   0.0104167  -0.1770833  -0.5000000), wk =   0.0034722
        k(   41) = (   0.0104167  -0.1562500  -0.5000000), wk =   0.0034722
        k(   42) = (   0.0104167  -0.1354167  -0.5000000), wk =   0.0034722
        k(   43) = (   0.0104167  -0.1145833  -0.5000000), wk =   0.0034722
        k(   44) = (   0.0104167  -0.0937500  -0.5000000), wk =   0.0034722
        k(   45) = (   0.0104167  -0.0729167  -0.5000000), wk =   0.0034722
        k(   46) = (   0.0104167  -0.0520833  -0.5000000), wk =   0.0034722
        k(   47) = (   0.0104167  -0.0312500  -0.5000000), wk =   0.0034722
        k(   48) = (   0.0104167  -0.0104167  -0.5000000), wk =   0.0017361
        k(   49) = (   0.0312500   0.0312500  -0.5000000), wk =   0.0017361
        k(   50) = (   0.0312500   0.0520833  -0.5000000), wk =   0.0034722
        k(   51) = (   0.0312500   0.0729167  -0.5000000), wk =   0.0034722
        k(   52) = (   0.0312500   0.0937500  -0.5000000), wk =   0.0034722
        k(   53) = (   0.0312500   0.1145833  -0.5000000), wk =   0.0034722
        k(   54) = (   0.0312500   0.1354167  -0.5000000), wk =   0.0034722
        k(   55) = (   0.0312500   0.1562500  -0.5000000), wk =   0.0034722
        k(   56) = (   0.0312500   0.1770833  -0.5000000), wk =   0.0034722
        k(   57) = (   0.0312500   0.1979167  -0.5000000), wk =   0.0034722
        k(   58) = (   0.0312500   0.2187500  -0.5000000), wk =   0.0034722
        k(   59) = (   0.0312500   0.2395833  -0.5000000), wk =   0.0034722
        k(   60) = (   0.0312500   0.2604167  -0.5000000), wk =   0.0034722
        k(   61) = (   0.0312500   0.2812500  -0.5000000), wk =   0.0034722
        k(   62) = (   0.0312500   0.3020833  -0.5000000), wk =   0.0034722
        k(   63) = (   0.0312500   0.3229167  -0.5000000), wk =   0.0034722
        k(   64) = (   0.0312500   0.3437500  -0.5000000), wk =   0.0034722
        k(   65) = (   0.0312500   0.3645833  -0.5000000), wk =   0.0034722
        k(   66) = (   0.0312500   0.3854167  -0.5000000), wk =   0.0034722
        k(   67) = (   0.0312500   0.4062500  -0.5000000), wk =   0.0034722
        k(   68) = (   0.0312500   0.4270833  -0.5000000), wk =   0.0034722
        k(   69) = (   0.0312500   0.4479167  -0.5000000), wk =   0.0034722
        k(   70) = (   0.0312500   0.4687500  -0.5000000), wk =   0.0034722
        k(   71) = (   0.0312500   0.4895833  -0.5000000), wk =   0.0034722
        k(   72) = (   0.0312500  -0.4895833  -0.5000000), wk =   0.0034722
        k(   73) = (   0.0312500  -0.4687500  -0.5000000), wk =   0.0034722
        k(   74) = (   0.0312500  -0.4479167  -0.5000000), wk =   0.0034722
        k(   75) = (   0.0312500  -0.4270833  -0.5000000), wk =   0.0034722
        k(   76) = (   0.0312500  -0.4062500  -0.5000000), wk =   0.0034722
        k(   77) = (   0.0312500  -0.3854167  -0.5000000), wk =   0.0034722
        k(   78) = (   0.0312500  -0.3645833  -0.5000000), wk =   0.0034722
        k(   79) = (   0.0312500  -0.3437500  -0.5000000), wk =   0.0034722
        k(   80) = (   0.0312500  -0.3229167  -0.5000000), wk =   0.0034722
        k(   81) = (   0.0312500  -0.3020833  -0.5000000), wk =   0.0034722
        k(   82) = (   0.0312500  -0.2812500  -0.5000000), wk =   0.0034722
        k(   83) = (   0.0312500  -0.2604167  -0.5000000), wk =   0.0034722
        k(   84) = (   0.0312500  -0.2395833  -0.5000000), wk =   0.0034722
        k(   85) = (   0.0312500  -0.2187500  -0.5000000), wk =   0.0034722
        k(   86) = (   0.0312500  -0.1979167  -0.5000000), wk =   0.0034722
        k(   87) = (   0.0312500  -0.1770833  -0.5000000), wk =   0.0034722
        k(   88) = (   0.0312500  -0.1562500  -0.5000000), wk =   0.0034722
        k(   89) = (   0.0312500  -0.1354167  -0.5000000), wk =   0.0034722
        k(   90) = (   0.0312500  -0.1145833  -0.5000000), wk =   0.0034722
        k(   91) = (   0.0312500  -0.0937500  -0.5000000), wk =   0.0034722
        k(   92) = (   0.0312500  -0.0729167  -0.5000000), wk =   0.0034722
        k(   93) = (   0.0312500  -0.0520833  -0.5000000), wk =   0.0034722
        k(   94) = (   0.0312500  -0.0312500  -0.5000000), wk =   0.0017361
        k(   95) = (   0.0520833   0.0520833  -0.5000000), wk =   0.0017361
        k(   96) = (   0.0520833   0.0729167  -0.5000000), wk =   0.0034722
        k(   97) = (   0.0520833   0.0937500  -0.5000000), wk =   0.0034722
        k(   98) = (   0.0520833   0.1145833  -0.5000000), wk =   0.0034722
        k(   99) = (   0.0520833   0.1354167  -0.5000000), wk =   0.0034722
        k(  100) = (   0.0520833   0.1562500  -0.5000000), wk =   0.0034722
        k(  101) = (   0.0520833   0.1770833  -0.5000000), wk =   0.0034722
        k(  102) = (   0.0520833   0.1979167  -0.5000000), wk =   0.0034722
        k(  103) = (   0.0520833   0.2187500  -0.5000000), wk =   0.0034722
        k(  104) = (   0.0520833   0.2395833  -0.5000000), wk =   0.0034722
        k(  105) = (   0.0520833   0.2604167  -0.5000000), wk =   0.0034722
        k(  106) = (   0.0520833   0.2812500  -0.5000000), wk =   0.0034722
        k(  107) = (   0.0520833   0.3020833  -0.5000000), wk =   0.0034722
        k(  108) = (   0.0520833   0.3229167  -0.5000000), wk =   0.0034722
        k(  109) = (   0.0520833   0.3437500  -0.5000000), wk =   0.0034722
        k(  110) = (   0.0520833   0.3645833  -0.5000000), wk =   0.0034722
        k(  111) = (   0.0520833   0.3854167  -0.5000000), wk =   0.0034722
        k(  112) = (   0.0520833   0.4062500  -0.5000000), wk =   0.0034722
        k(  113) = (   0.0520833   0.4270833  -0.5000000), wk =   0.0034722
        k(  114) = (   0.0520833   0.4479167  -0.5000000), wk =   0.0034722
        k(  115) = (   0.0520833   0.4687500  -0.5000000), wk =   0.0034722
        k(  116) = (   0.0520833   0.4895833  -0.5000000), wk =   0.0034722
        k(  117) = (   0.0520833  -0.4895833  -0.5000000), wk =   0.0034722
        k(  118) = (   0.0520833  -0.4687500  -0.5000000), wk =   0.0034722
        k(  119) = (   0.0520833  -0.4479167  -0.5000000), wk =   0.0034722
        k(  120) = (   0.0520833  -0.4270833  -0.5000000), wk =   0.0034722
        k(  121) = (   0.0520833  -0.4062500  -0.5000000), wk =   0.0034722
        k(  122) = (   0.0520833  -0.3854167  -0.5000000), wk =   0.0034722
        k(  123) = (   0.0520833  -0.3645833  -0.5000000), wk =   0.0034722
        k(  124) = (   0.0520833  -0.3437500  -0.5000000), wk =   0.0034722
        k(  125) = (   0.0520833  -0.3229167  -0.5000000), wk =   0.0034722
        k(  126) = (   0.0520833  -0.3020833  -0.5000000), wk =   0.0034722
        k(  127) = (   0.0520833  -0.2812500  -0.5000000), wk =   0.0034722
        k(  128) = (   0.0520833  -0.2604167  -0.5000000), wk =   0.0034722
        k(  129) = (   0.0520833  -0.2395833  -0.5000000), wk =   0.0034722
        k(  130) = (   0.0520833  -0.2187500  -0.5000000), wk =   0.0034722
        k(  131) = (   0.0520833  -0.1979167  -0.5000000), wk =   0.0034722
        k(  132) = (   0.0520833  -0.1770833  -0.5000000), wk =   0.0034722
        k(  133) = (   0.0520833  -0.1562500  -0.5000000), wk =   0.0034722
        k(  134) = (   0.0520833  -0.1354167  -0.5000000), wk =   0.0034722
        k(  135) = (   0.0520833  -0.1145833  -0.5000000), wk =   0.0034722
        k(  136) = (   0.0520833  -0.0937500  -0.5000000), wk =   0.0034722
        k(  137) = (   0.0520833  -0.0729167  -0.5000000), wk =   0.0034722
        k(  138) = (   0.0520833  -0.0520833  -0.5000000), wk =   0.0017361
        k(  139) = (   0.0729167   0.0729167  -0.5000000), wk =   0.0017361
        k(  140) = (   0.0729167   0.0937500  -0.5000000), wk =   0.0034722
        k(  141) = (   0.0729167   0.1145833  -0.5000000), wk =   0.0034722
        k(  142) = (   0.0729167   0.1354167  -0.5000000), wk =   0.0034722
        k(  143) = (   0.0729167   0.1562500  -0.5000000), wk =   0.0034722
        k(  144) = (   0.0729167   0.1770833  -0.5000000), wk =   0.0034722
        k(  145) = (   0.0729167   0.1979167  -0.5000000), wk =   0.0034722
        k(  146) = (   0.0729167   0.2187500  -0.5000000), wk =   0.0034722
        k(  147) = (   0.0729167   0.2395833  -0.5000000), wk =   0.0034722
        k(  148) = (   0.0729167   0.2604167  -0.5000000), wk =   0.0034722
        k(  149) = (   0.0729167   0.2812500  -0.5000000), wk =   0.0034722
        k(  150) = (   0.0729167   0.3020833  -0.5000000), wk =   0.0034722
        k(  151) = (   0.0729167   0.3229167  -0.5000000), wk =   0.0034722
        k(  152) = (   0.0729167   0.3437500  -0.5000000), wk =   0.0034722
        k(  153) = (   0.0729167   0.3645833  -0.5000000), wk =   0.0034722
        k(  154) = (   0.0729167   0.3854167  -0.5000000), wk =   0.0034722
        k(  155) = (   0.0729167   0.4062500  -0.5000000), wk =   0.0034722
        k(  156) = (   0.0729167   0.4270833  -0.5000000), wk =   0.0034722
        k(  157) = (   0.0729167   0.4479167  -0.5000000), wk =   0.0034722
        k(  158) = (   0.0729167   0.4687500  -0.5000000), wk =   0.0034722
        k(  159) = (   0.0729167   0.4895833  -0.5000000), wk =   0.0034722
        k(  160) = (   0.0729167  -0.4895833  -0.5000000), wk =   0.0034722
        k(  161) = (   0.0729167  -0.4687500  -0.5000000), wk =   0.0034722
        k(  162) = (   0.0729167  -0.4479167  -0.5000000), wk =   0.0034722
        k(  163) = (   0.0729167  -0.4270833  -0.5000000), wk =   0.0034722
        k(  164) = (   0.0729167  -0.4062500  -0.5000000), wk =   0.0034722
        k(  165) = (   0.0729167  -0.3854167  -0.5000000), wk =   0.0034722
        k(  166) = (   0.0729167  -0.3645833  -0.5000000), wk =   0.0034722
        k(  167) = (   0.0729167  -0.3437500  -0.5000000), wk =   0.0034722
        k(  168) = (   0.0729167  -0.3229167  -0.5000000), wk =   0.0034722
        k(  169) = (   0.0729167  -0.3020833  -0.5000000), wk =   0.0034722
        k(  170) = (   0.0729167  -0.2812500  -0.5000000), wk =   0.0034722
        k(  171) = (   0.0729167  -0.2604167  -0.5000000), wk =   0.0034722
        k(  172) = (   0.0729167  -0.2395833  -0.5000000), wk =   0.0034722
        k(  173) = (   0.0729167  -0.2187500  -0.5000000), wk =   0.0034722
        k(  174) = (   0.0729167  -0.1979167  -0.5000000), wk =   0.0034722
        k(  175) = (   0.0729167  -0.1770833  -0.5000000), wk =   0.0034722
        k(  176) = (   0.0729167  -0.1562500  -0.5000000), wk =   0.0034722
        k(  177) = (   0.0729167  -0.1354167  -0.5000000), wk =   0.0034722
        k(  178) = (   0.0729167  -0.1145833  -0.5000000), wk =   0.0034722
        k(  179) = (   0.0729167  -0.0937500  -0.5000000), wk =   0.0034722
        k(  180) = (   0.0729167  -0.0729167  -0.5000000), wk =   0.0017361
        k(  181) = (   0.0937500   0.0937500  -0.5000000), wk =   0.0017361
        k(  182) = (   0.0937500   0.1145833  -0.5000000), wk =   0.0034722
        k(  183) = (   0.0937500   0.1354167  -0.5000000), wk =   0.0034722
        k(  184) = (   0.0937500   0.1562500  -0.5000000), wk =   0.0034722
        k(  185) = (   0.0937500   0.1770833  -0.5000000), wk =   0.0034722
        k(  186) = (   0.0937500   0.1979167  -0.5000000), wk =   0.0034722
        k(  187) = (   0.0937500   0.2187500  -0.5000000), wk =   0.0034722
        k(  188) = (   0.0937500   0.2395833  -0.5000000), wk =   0.0034722
        k(  189) = (   0.0937500   0.2604167  -0.5000000), wk =   0.0034722
        k(  190) = (   0.0937500   0.2812500  -0.5000000), wk =   0.0034722
        k(  191) = (   0.0937500   0.3020833  -0.5000000), wk =   0.0034722
        k(  192) = (   0.0937500   0.3229167  -0.5000000), wk =   0.0034722
        k(  193) = (   0.0937500   0.3437500  -0.5000000), wk =   0.0034722
        k(  194) = (   0.0937500   0.3645833  -0.5000000), wk =   0.0034722
        k(  195) = (   0.0937500   0.3854167  -0.5000000), wk =   0.0034722
        k(  196) = (   0.0937500   0.4062500  -0.5000000), wk =   0.0034722
        k(  197) = (   0.0937500   0.4270833  -0.5000000), wk =   0.0034722
        k(  198) = (   0.0937500   0.4479167  -0.5000000), wk =   0.0034722
        k(  199) = (   0.0937500   0.4687500  -0.5000000), wk =   0.0034722
        k(  200) = (   0.0937500   0.4895833  -0.5000000), wk =   0.0034722
        k(  201) = (   0.0937500  -0.4895833  -0.5000000), wk =   0.0034722
        k(  202) = (   0.0937500  -0.4687500  -0.5000000), wk =   0.0034722
        k(  203) = (   0.0937500  -0.4479167  -0.5000000), wk =   0.0034722
        k(  204) = (   0.0937500  -0.4270833  -0.5000000), wk =   0.0034722
        k(  205) = (   0.0937500  -0.4062500  -0.5000000), wk =   0.0034722
        k(  206) = (   0.0937500  -0.3854167  -0.5000000), wk =   0.0034722
        k(  207) = (   0.0937500  -0.3645833  -0.5000000), wk =   0.0034722
        k(  208) = (   0.0937500  -0.3437500  -0.5000000), wk =   0.0034722
        k(  209) = (   0.0937500  -0.3229167  -0.5000000), wk =   0.0034722
        k(  210) = (   0.0937500  -0.3020833  -0.5000000), wk =   0.0034722
        k(  211) = (   0.0937500  -0.2812500  -0.5000000), wk =   0.0034722
        k(  212) = (   0.0937500  -0.2604167  -0.5000000), wk =   0.0034722
        k(  213) = (   0.0937500  -0.2395833  -0.5000000), wk =   0.0034722
        k(  214) = (   0.0937500  -0.2187500  -0.5000000), wk =   0.0034722
        k(  215) = (   0.0937500  -0.1979167  -0.5000000), wk =   0.0034722
        k(  216) = (   0.0937500  -0.1770833  -0.5000000), wk =   0.0034722
        k(  217) = (   0.0937500  -0.1562500  -0.5000000), wk =   0.0034722
        k(  218) = (   0.0937500  -0.1354167  -0.5000000), wk =   0.0034722
        k(  219) = (   0.0937500  -0.1145833  -0.5000000), wk =   0.0034722
        k(  220) = (   0.0937500  -0.0937500  -0.5000000), wk =   0.0017361
        k(  221) = (   0.1145833   0.1145833  -0.5000000), wk =   0.0017361
        k(  222) = (   0.1145833   0.1354167  -0.5000000), wk =   0.0034722
        k(  223) = (   0.1145833   0.1562500  -0.5000000), wk =   0.0034722
        k(  224) = (   0.1145833   0.1770833  -0.5000000), wk =   0.0034722
        k(  225) = (   0.1145833   0.1979167  -0.5000000), wk =   0.0034722
        k(  226) = (   0.1145833   0.2187500  -0.5000000), wk =   0.0034722
        k(  227) = (   0.1145833   0.2395833  -0.5000000), wk =   0.0034722
        k(  228) = (   0.1145833   0.2604167  -0.5000000), wk =   0.0034722
        k(  229) = (   0.1145833   0.2812500  -0.5000000), wk =   0.0034722
        k(  230) = (   0.1145833   0.3020833  -0.5000000), wk =   0.0034722
        k(  231) = (   0.1145833   0.3229167  -0.5000000), wk =   0.0034722
        k(  232) = (   0.1145833   0.3437500  -0.5000000), wk =   0.0034722
        k(  233) = (   0.1145833   0.3645833  -0.5000000), wk =   0.0034722
        k(  234) = (   0.1145833   0.3854167  -0.5000000), wk =   0.0034722
        k(  235) = (   0.1145833   0.4062500  -0.5000000), wk =   0.0034722
        k(  236) = (   0.1145833   0.4270833  -0.5000000), wk =   0.0034722
        k(  237) = (   0.1145833   0.4479167  -0.5000000), wk =   0.0034722
        k(  238) = (   0.1145833   0.4687500  -0.5000000), wk =   0.0034722
        k(  239) = (   0.1145833   0.4895833  -0.5000000), wk =   0.0034722
        k(  240) = (   0.1145833  -0.4895833  -0.5000000), wk =   0.0034722
        k(  241) = (   0.1145833  -0.4687500  -0.5000000), wk =   0.0034722
        k(  242) = (   0.1145833  -0.4479167  -0.5000000), wk =   0.0034722
        k(  243) = (   0.1145833  -0.4270833  -0.5000000), wk =   0.0034722
        k(  244) = (   0.1145833  -0.4062500  -0.5000000), wk =   0.0034722
        k(  245) = (   0.1145833  -0.3854167  -0.5000000), wk =   0.0034722
        k(  246) = (   0.1145833  -0.3645833  -0.5000000), wk =   0.0034722
        k(  247) = (   0.1145833  -0.3437500  -0.5000000), wk =   0.0034722
        k(  248) = (   0.1145833  -0.3229167  -0.5000000), wk =   0.0034722
        k(  249) = (   0.1145833  -0.3020833  -0.5000000), wk =   0.0034722
        k(  250) = (   0.1145833  -0.2812500  -0.5000000), wk =   0.0034722
        k(  251) = (   0.1145833  -0.2604167  -0.5000000), wk =   0.0034722
        k(  252) = (   0.1145833  -0.2395833  -0.5000000), wk =   0.0034722
        k(  253) = (   0.1145833  -0.2187500  -0.5000000), wk =   0.0034722
        k(  254) = (   0.1145833  -0.1979167  -0.5000000), wk =   0.0034722
        k(  255) = (   0.1145833  -0.1770833  -0.5000000), wk =   0.0034722
        k(  256) = (   0.1145833  -0.1562500  -0.5000000), wk =   0.0034722
        k(  257) = (   0.1145833  -0.1354167  -0.5000000), wk =   0.0034722
        k(  258) = (   0.1145833  -0.1145833  -0.5000000), wk =   0.0017361
        k(  259) = (   0.1354167   0.1354167  -0.5000000), wk =   0.0017361
        k(  260) = (   0.1354167   0.1562500  -0.5000000), wk =   0.0034722
        k(  261) = (   0.1354167   0.1770833  -0.5000000), wk =   0.0034722
        k(  262) = (   0.1354167   0.1979167  -0.5000000), wk =   0.0034722
        k(  263) = (   0.1354167   0.2187500  -0.5000000), wk =   0.0034722
        k(  264) = (   0.1354167   0.2395833  -0.5000000), wk =   0.0034722
        k(  265) = (   0.1354167   0.2604167  -0.5000000), wk =   0.0034722
        k(  266) = (   0.1354167   0.2812500  -0.5000000), wk =   0.0034722
        k(  267) = (   0.1354167   0.3020833  -0.5000000), wk =   0.0034722
        k(  268) = (   0.1354167   0.3229167  -0.5000000), wk =   0.0034722
        k(  269) = (   0.1354167   0.3437500  -0.5000000), wk =   0.0034722
        k(  270) = (   0.1354167   0.3645833  -0.5000000), wk =   0.0034722
        k(  271) = (   0.1354167   0.3854167  -0.5000000), wk =   0.0034722
        k(  272) = (   0.1354167   0.4062500  -0.5000000), wk =   0.0034722
        k(  273) = (   0.1354167   0.4270833  -0.5000000), wk =   0.0034722
        k(  274) = (   0.1354167   0.4479167  -0.5000000), wk =   0.0034722
        k(  275) = (   0.1354167   0.4687500  -0.5000000), wk =   0.0034722
        k(  276) = (   0.1354167   0.4895833  -0.5000000), wk =   0.0034722
        k(  277) = (   0.1354167  -0.4895833  -0.5000000), wk =   0.0034722
        k(  278) = (   0.1354167  -0.4687500  -0.5000000), wk =   0.0034722
        k(  279) = (   0.1354167  -0.4479167  -0.5000000), wk =   0.0034722
        k(  280) = (   0.1354167  -0.4270833  -0.5000000), wk =   0.0034722
        k(  281) = (   0.1354167  -0.4062500  -0.5000000), wk =   0.0034722
        k(  282) = (   0.1354167  -0.3854167  -0.5000000), wk =   0.0034722
        k(  283) = (   0.1354167  -0.3645833  -0.5000000), wk =   0.0034722
        k(  284) = (   0.1354167  -0.3437500  -0.5000000), wk =   0.0034722
        k(  285) = (   0.1354167  -0.3229167  -0.5000000), wk =   0.0034722
        k(  286) = (   0.1354167  -0.3020833  -0.5000000), wk =   0.0034722
        k(  287) = (   0.1354167  -0.2812500  -0.5000000), wk =   0.0034722
        k(  288) = (   0.1354167  -0.2604167  -0.5000000), wk =   0.0034722
        k(  289) = (   0.1354167  -0.2395833  -0.5000000), wk =   0.0034722
        k(  290) = (   0.1354167  -0.2187500  -0.5000000), wk =   0.0034722
        k(  291) = (   0.1354167  -0.1979167  -0.5000000), wk =   0.0034722
        k(  292) = (   0.1354167  -0.1770833  -0.5000000), wk =   0.0034722
        k(  293) = (   0.1354167  -0.1562500  -0.5000000), wk =   0.0034722
        k(  294) = (   0.1354167  -0.1354167  -0.5000000), wk =   0.0017361
        k(  295) = (   0.1562500   0.1562500  -0.5000000), wk =   0.0017361
        k(  296) = (   0.1562500   0.1770833  -0.5000000), wk =   0.0034722
        k(  297) = (   0.1562500   0.1979167  -0.5000000), wk =   0.0034722
        k(  298) = (   0.1562500   0.2187500  -0.5000000), wk =   0.0034722
        k(  299) = (   0.1562500   0.2395833  -0.5000000), wk =   0.0034722
        k(  300) = (   0.1562500   0.2604167  -0.5000000), wk =   0.0034722
        k(  301) = (   0.1562500   0.2812500  -0.5000000), wk =   0.0034722
        k(  302) = (   0.1562500   0.3020833  -0.5000000), wk =   0.0034722
        k(  303) = (   0.1562500   0.3229167  -0.5000000), wk =   0.0034722
        k(  304) = (   0.1562500   0.3437500  -0.5000000), wk =   0.0034722
        k(  305) = (   0.1562500   0.3645833  -0.5000000), wk =   0.0034722
        k(  306) = (   0.1562500   0.3854167  -0.5000000), wk =   0.0034722
        k(  307) = (   0.1562500   0.4062500  -0.5000000), wk =   0.0034722
        k(  308) = (   0.1562500   0.4270833  -0.5000000), wk =   0.0034722
        k(  309) = (   0.1562500   0.4479167  -0.5000000), wk =   0.0034722
        k(  310) = (   0.1562500   0.4687500  -0.5000000), wk =   0.0034722
        k(  311) = (   0.1562500   0.4895833  -0.5000000), wk =   0.0034722
        k(  312) = (   0.1562500  -0.4895833  -0.5000000), wk =   0.0034722
        k(  313) = (   0.1562500  -0.4687500  -0.5000000), wk =   0.0034722
        k(  314) = (   0.1562500  -0.4479167  -0.5000000), wk =   0.0034722
        k(  315) = (   0.1562500  -0.4270833  -0.5000000), wk =   0.0034722
        k(  316) = (   0.1562500  -0.4062500  -0.5000000), wk =   0.0034722
        k(  317) = (   0.1562500  -0.3854167  -0.5000000), wk =   0.0034722
        k(  318) = (   0.1562500  -0.3645833  -0.5000000), wk =   0.0034722
        k(  319) = (   0.1562500  -0.3437500  -0.5000000), wk =   0.0034722
        k(  320) = (   0.1562500  -0.3229167  -0.5000000), wk =   0.0034722
        k(  321) = (   0.1562500  -0.3020833  -0.5000000), wk =   0.0034722
        k(  322) = (   0.1562500  -0.2812500  -0.5000000), wk =   0.0034722
        k(  323) = (   0.1562500  -0.2604167  -0.5000000), wk =   0.0034722
        k(  324) = (   0.1562500  -0.2395833  -0.5000000), wk =   0.0034722
        k(  325) = (   0.1562500  -0.2187500  -0.5000000), wk =   0.0034722
        k(  326) = (   0.1562500  -0.1979167  -0.5000000), wk =   0.0034722
        k(  327) = (   0.1562500  -0.1770833  -0.5000000), wk =   0.0034722
        k(  328) = (   0.1562500  -0.1562500  -0.5000000), wk =   0.0017361
        k(  329) = (   0.1770833   0.1770833  -0.5000000), wk =   0.0017361
        k(  330) = (   0.1770833   0.1979167  -0.5000000), wk =   0.0034722
        k(  331) = (   0.1770833   0.2187500  -0.5000000), wk =   0.0034722
        k(  332) = (   0.1770833   0.2395833  -0.5000000), wk =   0.0034722
        k(  333) = (   0.1770833   0.2604167  -0.5000000), wk =   0.0034722
        k(  334) = (   0.1770833   0.2812500  -0.5000000), wk =   0.0034722
        k(  335) = (   0.1770833   0.3020833  -0.5000000), wk =   0.0034722
        k(  336) = (   0.1770833   0.3229167  -0.5000000), wk =   0.0034722
        k(  337) = (   0.1770833   0.3437500  -0.5000000), wk =   0.0034722
        k(  338) = (   0.1770833   0.3645833  -0.5000000), wk =   0.0034722
        k(  339) = (   0.1770833   0.3854167  -0.5000000), wk =   0.0034722
        k(  340) = (   0.1770833   0.4062500  -0.5000000), wk =   0.0034722
        k(  341) = (   0.1770833   0.4270833  -0.5000000), wk =   0.0034722
        k(  342) = (   0.1770833   0.4479167  -0.5000000), wk =   0.0034722
        k(  343) = (   0.1770833   0.4687500  -0.5000000), wk =   0.0034722
        k(  344) = (   0.1770833   0.4895833  -0.5000000), wk =   0.0034722
        k(  345) = (   0.1770833  -0.4895833  -0.5000000), wk =   0.0034722
        k(  346) = (   0.1770833  -0.4687500  -0.5000000), wk =   0.0034722
        k(  347) = (   0.1770833  -0.4479167  -0.5000000), wk =   0.0034722
        k(  348) = (   0.1770833  -0.4270833  -0.5000000), wk =   0.0034722
        k(  349) = (   0.1770833  -0.4062500  -0.5000000), wk =   0.0034722
        k(  350) = (   0.1770833  -0.3854167  -0.5000000), wk =   0.0034722
        k(  351) = (   0.1770833  -0.3645833  -0.5000000), wk =   0.0034722
        k(  352) = (   0.1770833  -0.3437500  -0.5000000), wk =   0.0034722
        k(  353) = (   0.1770833  -0.3229167  -0.5000000), wk =   0.0034722
        k(  354) = (   0.1770833  -0.3020833  -0.5000000), wk =   0.0034722
        k(  355) = (   0.1770833  -0.2812500  -0.5000000), wk =   0.0034722
        k(  356) = (   0.1770833  -0.2604167  -0.5000000), wk =   0.0034722
[...]

          k = 0.3854-0.6916-0.0990 ( 10930 PWs)   bands (ev):

   -38.3173 -38.3148 -38.2739 -38.2733 -38.2545 -26.1400 -26.1350 -26.0873
   -26.0849 -26.0589 -12.3213  -9.5407  -5.3295  -4.2235  -3.3420   0.2391
     1.6361   1.7664   4.4205   5.6485   5.8575   6.0928   6.2283   6.8381

     occupation numbers 
     1.0000   1.0000   1.0000   1.0000   1.0000   1.0000   1.0000   1.0000
     1.0000   1.0000   1.0000   1.0000   1.0000   1.0000   1.0000   0.0000
     0.0000   0.0000   0.0000   0.0000   0.0000   0.0000   0.0000   0.0000

          k = 0.3854-0.6676-0.0990 ( 10924 PWs)   bands (ev):

   -38.3171 -38.3149 -38.2739 -38.2733 -38.2545 -26.1397 -26.1352 -26.0872
   -26.0850 -26.0588 -12.2895  -9.5555  -5.4103  -4.1994  -3.3658   0.1509
     1.7396   1.8407   4.6253   5.5420   6.0287   6.0629   6.2730   7.0399

     occupation numbers 
     1.0000   1.0000   1.0000   1.0000   1.0000   1.0000   1.0000   1.0000
     1.0000   1.0000   1.0000   1.0000   1.0000   1.0000   1.0000   0.0000
     0.0000   0.0000   0.0000   0.0000   0.0000   0.0000   0.0000   0.0000

          k = 0.4063 0.2345-0.0990 ( 10908 PWs)   bands (ev):

   -38.3186 -38.3143 -38.2740 -38.2729 -38.2549 -26.1414 -26.1342 -26.0873
   -26.0840 -26.0593 -12.7235  -9.2372  -5.0661  -3.5523  -3.1449  -0.2125
     1.1120   1.9906   3.8034   4.4599   5.2056   5.4754   6.2053   6.7919

     occupation numbers 
     1.0000   1.0000   1.0000   1.0000   1.0000   1.0000   1.0000   1.0000
     1.0000   1.0000   1.0000   1.0000   1.0000   1.0000   1.0000   0.0000
     0.0000   0.0000   0.0000   0.0000   0.0000   0.0000   0.0000   0.0000

          k = 0.4063 0.2586-0.0990 ( 10904 PWs)   bands (ev):

   -38.3186 -38.3142 -38.2740 -38.2729 -38.2548 -26.1414 -26.1341 -26.0874
   -26.0840 -26.0593 -12.6795  -9.2887  -5.0514  -3.6021  -3.1816  -0.1617
     1.0704   1.9732   3.7836   4.5691   5.2785   5.5874   6.2057   6.7001

     occupation numbers 
     1.0000   1.0000   1.0000   1.0000   1.0000   1.0000   1.0000   1.0000
     1.0000   1.0000   1.0000   1.0000   1.0000   1.0000   1.0000   0.0000
     0.0000   0.0000   0.0000   0.0000   0.0000   0.0000   0.0000   0.0000

          k = 0.4063 0.2827-0.0990 ( 10898 PWs)   bands (ev):

   -38.3186 -38.3142 -38.2740 -38.2729 -38.2548 -26.1414 -26.1341 -26.0875
   -26.0840 -26.0592 -12.6341  -9.3371  -5.0348  -3.6979  -3.2010  -0.0656
     1.0346   1.9307   3.7790   4.6914   5.3633   5.7109   6.2168   6.6049

     occupation numbers 
     1.0000   1.0000   1.0000   1.0000   1.0000   1.0000   1.0000   1.0000
     1.0000   1.0000   1.0000   1.0000   1.0000   1.0000   1.0000   0.0000
     0.0000   0.0000   0.0000   0.0000   0.0000   0.0000   0.0000   0.0000

          k = 0.4063 0.3067-0.0990 ( 10908 PWs)   bands (ev):

   -38.3185 -38.3141 -38.2740 -38.2729 -38.2547 -26.1414 -26.1341 -26.0875
   -26.0841 -26.0592 -12.5882  -9.3815  -5.0206  -3.8145  -3.2178   0.0685
     1.0000   1.8745   3.7877   4.8266   5.4609   5.8454   6.2188   6.5311

     occupation numbers 
     1.0000   1.0000   1.0000   1.0000   1.0000   1.0000   1.0000   1.0000
     1.0000   1.0000   1.0000   1.0000   1.0000   1.0000   1.0000   0.0000
     0.0000   0.0000   0.0000   0.0000   0.0000   0.0000   0.0000   0.0000

          k = 0.4063 0.3308-0.0990 ( 10916 PWs)   bands (ev):

   -38.3184 -38.3142 -38.2740 -38.2729 -38.2547 -26.1412 -26.1341 -26.0875
   -26.0842 -26.0591 -12.5426  -9.4209  -5.0143  -3.9333  -3.2378   0.2267
     0.9661   1.8167   3.8098   4.9738   5.5706   5.9899   6.1890   6.4843

     occupation numbers 
     1.0000   1.0000   1.0000   1.0000   1.0000   1.0000   1.0000   1.0000
     1.0000   1.0000   1.0000   1.0000   1.0000   1.0000   1.0000   0.0000
     0.0000   0.0000   0.0000   0.0000   0.0000   0.0000   0.0000   0.0000

          k = 0.4063-0.7999-0.0990 ( 10922 PWs)   bands (ev):

   -38.3183 -38.3142 -38.2740 -38.2730 -38.2546 -26.1411 -26.1342 -26.0875
   -26.0843 -26.0591 -12.4982  -9.4548  -5.0224  -4.0402  -3.2606   0.3822
     0.9460   1.7674   3.8478   5.1319   5.6895   6.1076   6.1655   6.4344

     occupation numbers 
     1.0000   1.0000   1.0000   1.0000   1.0000   1.0000   1.0000   1.0000
     1.0000   1.0000   1.0000   1.0000   1.0000   1.0000   1.0000   0.0000
     0.0000   0.0000   0.0000   0.0000   0.0000   0.0000   0.0000   0.0000

          k = 0.4063-0.7758-0.0990 ( 10932 PWs)   bands (ev):

   -38.3181 -38.3143 -38.2740 -38.2730 -38.2546 -26.1409 -26.1343 -26.0875
   -26.0844 -26.0590 -12.4557  -9.4828  -5.0508  -4.1248  -3.2837   0.4810
     0.9840   1.7318   3.9057   5.2997   5.8109   6.0471   6.3046   6.3661

     occupation numbers 
     1.0000   1.0000   1.0000   1.0000   1.0000   1.0000   1.0000   1.0000
     1.0000   1.0000   1.0000   1.0000   1.0000   1.0000   1.0000   0.0000
     0.0000   0.0000   0.0000   0.0000   0.0000   0.0000   0.0000   0.0000

          k = 0.4063-0.7518-0.0990 ( 10938 PWs)   bands (ev):

   -38.3179 -38.3144 -38.2740 -38.2731 -38.2546 -26.1407 -26.1345 -26.0875
   -26.0845 -26.0590 -12.4161  -9.5049  -5.1019  -4.1816  -3.3047   0.4799
     1.1174   1.7105   3.9880   5.4753   5.9175   5.9782   6.2373   6.5040

     occupation numbers 
     1.0000   1.0000   1.0000   1.0000   1.0000   1.0000   1.0000   1.0000
     1.0000   1.0000   1.0000   1.0000   1.0000   1.0000   1.0000   0.0000
     0.0000   0.0000   0.0000   0.0000   0.0000   0.0000   0.0000   0.0000

          k = 0.4063-0.7277-0.0990 ( 10934 PWs)   bands (ev):

   -38.3177 -38.3145 -38.2740 -38.2731 -38.2545 -26.1405 -26.1346 -26.0874
   -26.0847 -26.0589 -12.3801  -9.5216  -5.1714  -4.2123  -3.3220   0.4148
     1.3062   1.7018   4.0992   5.6505   5.8956   5.9894   6.1625   6.6908

     occupation numbers 
     1.0000   1.0000   1.0000   1.0000   1.0000   1.0000   1.0000   1.0000
     1.0000   1.0000   1.0000   1.0000   1.0000   1.0000   1.0000   0.0000
     0.0000   0.0000   0.0000   0.0000   0.0000   0.0000   0.0000   0.0000

          k = 0.4063-0.7036-0.0990 ( 10926 PWs)   bands (ev):

   -38.3175 -38.3146 -38.2740 -38.2732 -38.2545 -26.1402 -26.1348 -26.0873
   -26.0848 -26.0589 -12.3483  -9.5332  -5.2505  -4.2236  -3.3345   0.3278
     1.5007   1.7076   4.2428   5.7350   5.9039   5.9430   6.1894   6.8804

     occupation numbers 
     1.0000   1.0000   1.0000   1.0000   1.0000   1.0000   1.0000   1.0000
     1.0000   1.0000   1.0000   1.0000   1.0000   1.0000   1.0000   0.0000
     0.0000   0.0000   0.0000   0.0000   0.0000   0.0000   0.0000   0.0000

          k = 0.4271 0.2466-0.0990 ( 10882 PWs)   bands (ev):

   -38.3186 -38.3141 -38.2740 -38.2729 -38.2548 -26.1415 -26.1340 -26.0875
   -26.0840 -26.0592 -12.6435  -9.3353  -5.0382  -3.5869  -3.2400  -0.1587
     1.0259   1.9866   3.7488   4.6694   5.3411   5.6936   6.1736   6.5900

     occupation numbers 
     1.0000   1.0000   1.0000   1.0000   1.0000   1.0000   1.0000   1.0000
     1.0000   1.0000   1.0000   1.0000   1.0000   1.0000   1.0000   0.0000
     0.0000   0.0000   0.0000   0.0000   0.0000   0.0000   0.0000   0.0000

          k = 0.4271 0.2706-0.0990 ( 10902 PWs)   bands (ev):

   -38.3186 -38.3141 -38.2741 -38.2729 -38.2547 -26.1415 -26.1340 -26.0875
   -26.0840 -26.0592 -12.6066  -9.3784  -5.0230  -3.6312  -3.2700  -0.1087
     0.9896   1.9705   3.7312   4.7829   5.4126   5.8112   6.1512   6.4954

     occupation numbers 
     1.0000   1.0000   1.0000   1.0000   1.0000   1.0000   1.0000   1.0000
     1.0000   1.0000   1.0000   1.0000   1.0000   1.0000   1.0000   0.0000
     0.0000   0.0000   0.0000   0.0000   0.0000   0.0000   0.0000   0.0000

          k = 0.4271 0.2947-0.0990 ( 10902 PWs)   bands (ev):

   -38.3186 -38.3140 -38.2741 -38.2729 -38.2547 -26.1415 -26.1340 -26.0876
   -26.0841 -26.0591 -12.5694  -9.4167  -5.0090  -3.7178  -3.2830  -0.0125
     0.9564   1.9314   3.7292   4.9097   5.4954   5.9396   6.1199   6.4341

     occupation numbers 
     1.0000   1.0000   1.0000   1.0000   1.0000   1.0000   1.0000   1.0000
     1.0000   1.0000   1.0000   1.0000   1.0000   1.0000   1.0000   0.0000
     0.0000   0.0000   0.0000   0.0000   0.0000   0.0000   0.0000   0.0000

          k = 0.4271 0.3187-0.0990 ( 10902 PWs)   bands (ev):

   -38.3185 -38.3141 -38.2741 -38.2729 -38.2547 -26.1414 -26.1340 -26.0876
   -26.0841 -26.0591 -12.5328  -9.4494  -5.0004  -3.8227  -3.2931   0.1227
     0.9230   1.8788   3.7418   5.0498   5.5897   6.0520   6.0922   6.4056

     occupation numbers 
     1.0000   1.0000   1.0000   1.0000   1.0000   1.0000   1.0000   1.0000
     1.0000   1.0000   1.0000   1.0000   1.0000   1.0000   1.0000   0.0000
     0.0000   0.0000   0.0000   0.0000   0.0000   0.0000   0.0000   0.0000

          k = 0.4271-0.8119-0.0990 ( 10910 PWs)   bands (ev):

   -38.3184 -38.3141 -38.2741 -38.2730 -38.2546 -26.1413 -26.1340 -26.0876
   -26.0842 -26.0591 -12.4973  -9.4760  -5.0020  -3.9295  -3.3043   0.2822
     0.8911   1.8229   3.7699   5.2020   5.6901   5.9936   6.2337   6.3793

     occupation numbers 
     1.0000   1.0000   1.0000   1.0000   1.0000   1.0000   1.0000   1.0000
     1.0000   1.0000   1.0000   1.0000   1.0000   1.0000   1.0000   0.0000
     0.0000   0.0000   0.0000   0.0000   0.0000   0.0000   0.0000   0.0000

          k = 0.4271-0.7878-0.0990 ( 10922 PWs)   bands (ev):

   -38.3183 -38.3141 -38.2741 -38.2730 -38.2546 -26.1411 -26.1341 -26.0876
   -26.0843 -26.0590 -12.4638  -9.4962  -5.0186  -4.0273  -3.3149   0.4334
     0.8810   1.7722   3.8161   5.3651   5.7723   5.9475   6.3168   6.4034

     occupation numbers 
     1.0000   1.0000   1.0000   1.0000   1.0000   1.0000   1.0000   1.0000
     1.0000   1.0000   1.0000   1.0000   1.0000   1.0000   1.0000   0.0000
     0.0000   0.0000   0.0000   0.0000   0.0000   0.0000   0.0000   0.0000

          k = 0.4271-0.7638-0.0990 ( 10928 PWs)   bands (ev):

   -38.3181 -38.3142 -38.2740 -38.2730 -38.2546 -26.1409 -26.1343 -26.0875
   -26.0844 -26.0590 -12.4328  -9.5101  -5.0533  -4.1085  -3.3225   0.5087
     0.9501   1.7322   3.8841   5.5361   5.7731   5.9840   6.2342   6.5733

     occupation numbers 
     1.0000   1.0000   1.0000   1.0000   1.0000   1.0000   1.0000   1.0000
     1.0000   1.0000   1.0000   1.0000   1.0000   1.0000   1.0000   0.0000
     0.0000   0.0000   0.0000   0.0000   0.0000   0.0000   0.0000   0.0000

          k = 0.4271-0.7397-0.0990 ( 10920 PWs)   bands (ev):

   -38.3179 -38.3143 -38.2740 -38.2731 -38.2546 -26.1407 -26.1344 -26.0875
   -26.0845 -26.0590 -12.4047  -9.5183  -5.1058  -4.1697  -3.3251   0.4846
     1.1137   1.7065   3.9775   5.6831   5.7531   6.0481   6.1424   6.7501

     occupation numbers 
     1.0000   1.0000   1.0000   1.0000   1.0000   1.0000   1.0000   1.0000
     1.0000   1.0000   1.0000   1.0000   1.0000   1.0000   1.0000   0.0000
     0.0000   0.0000   0.0000   0.0000   0.0000   0.0000   0.0000   0.0000

          k = 0.4479 0.2586-0.0990 ( 10900 PWs)   bands (ev):

   -38.3186 -38.3140 -38.2741 -38.2729 -38.2547 -26.1415 -26.1339 -26.0876
   -26.0840 -26.0592 -12.5786  -9.4156  -5.0093  -3.6130  -3.3191  -0.1100
     0.9551   1.9829   3.7018   4.8863   5.4651   5.9223   6.0929   6.4121

     occupation numbers 
     1.0000   1.0000   1.0000   1.0000   1.0000   1.0000   1.0000   1.0000
     1.0000   1.0000   1.0000   1.0000   1.0000   1.0000   1.0000   0.0000
     0.0000   0.0000   0.0000   0.0000   0.0000   0.0000   0.0000   0.0000

          k = 0.4479 0.2827-0.0990 ( 10904 PWs)   bands (ev):

   -38.3186 -38.3140 -38.2741 -38.2729 -38.2547 -26.1415 -26.1338 -26.0876
   -26.0841 -26.0591 -12.5507  -9.4475  -4.9965  -3.6514  -3.3397  -0.0636
     0.9262   1.9683   3.6894   5.0026   5.5237   6.0191   6.0548   6.3673

     occupation numbers 
     1.0000   1.0000   1.0000   1.0000   1.0000   1.0000   1.0000   1.0000
     1.0000   1.0000   1.0000   1.0000   1.0000   1.0000   1.0000   0.0000
     0.0000   0.0000   0.0000   0.0000   0.0000   0.0000   0.0000   0.0000

          k = 0.4479 0.3067-0.0990 ( 10898 PWs)   bands (ev):

   -38.3186 -38.3140 -38.2741 -38.2729 -38.2547 -26.1415 -26.1339 -26.0877
   -26.0841 -26.0591 -12.5236  -9.4733  -4.9877  -3.7290  -3.3437   0.0296
     0.8986   1.9319   3.6929   5.1326   5.5875   5.9556   6.1821   6.3519

     occupation numbers 
     1.0000   1.0000   1.0000   1.0000   1.0000   1.0000   1.0000   1.0000
     1.0000   1.0000   1.0000   1.0000   1.0000   1.0000   1.0000   0.0000
     0.0000   0.0000   0.0000   0.0000   0.0000   0.0000   0.0000   0.0000

          k = 0.4479-0.8239-0.0990 ( 10892 PWs)   bands (ev):

   -38.3185 -38.3140 -38.2741 -38.2729 -38.2546 -26.1414 -26.1339 -26.0877
   -26.0841 -26.0591 -12.4978  -9.4924  -4.9862  -3.8246  -3.3433   0.1620
     0.8706   1.8816   3.7121   5.2764   5.6411   5.9018   6.3179   6.3481

     occupation numbers 
     1.0000   1.0000   1.0000   1.0000   1.0000   1.0000   1.0000   1.0000
     1.0000   1.0000   1.0000   1.0000   1.0000   1.0000   1.0000   0.0000
     0.0000   0.0000   0.0000   0.0000   0.0000   0.0000   0.0000   0.0000

          k = 0.4479-0.7999-0.0990 ( 10910 PWs)   bands (ev):

   -38.3184 -38.3140 -38.2741 -38.2730 -38.2546 -26.1413 -26.1340 -26.0876
   -26.0842 -26.0590 -12.4738  -9.5046  -4.9952  -3.9251  -3.3407   0.3165
     0.8474   1.8262   3.7487   5.4328   5.6455   5.9040   6.3059   6.4877

     occupation numbers 
     1.0000   1.0000   1.0000   1.0000   1.0000   1.0000   1.0000   1.0000
     1.0000   1.0000   1.0000   1.0000   1.0000   1.0000   1.0000   0.0000
     0.0000   0.0000   0.0000   0.0000   0.0000   0.0000   0.0000   0.0000

          k = 0.4479-0.7758-0.0990 ( 10932 PWs)   bands (ev):

   -38.3183 -38.3141 -38.2741 -38.2730 -38.2546 -26.1411 -26.1341 -26.0876
   -26.0843 -26.0590 -12.4521  -9.5103  -5.0173  -4.0217  -3.3344   0.4544
     0.8554   1.7739   3.8051   5.5941   5.6040   5.9530   6.2646   6.6515

     occupation numbers 
     1.0000   1.0000   1.0000   1.0000   1.0000   1.0000   1.0000   1.0000
     1.0000   1.0000   1.0000   1.0000   1.0000   1.0000   1.0000   0.0000
     0.0000   0.0000   0.0000   0.0000   0.0000   0.0000   0.0000   0.0000

          k = 0.4688 0.2706-0.0990 ( 10920 PWs)   bands (ev):

   -38.3186 -38.3139 -38.2741 -38.2729 -38.2547 -26.1416 -26.1338 -26.0877
   -26.0841 -26.0591 -12.5326  -9.4726  -4.9853  -3.6305  -3.3763  -0.0724
     0.9038   1.9801   3.6676   5.1058   5.5477   5.9423   6.1643   6.3360

     occupation numbers 
     1.0000   1.0000   1.0000   1.0000   1.0000   1.0000   1.0000   1.0000
     1.0000   1.0000   1.0000   1.0000   1.0000   1.0000   1.0000   0.0000
     0.0000   0.0000   0.0000   0.0000   0.0000   0.0000   0.0000   0.0000

          k = 0.4688 0.2947-0.0990 ( 10906 PWs)   bands (ev):

   -38.3186 -38.3139 -38.2741 -38.2729 -38.2547 -26.1416 -26.1338 -26.0877
   -26.0841 -26.0591 -12.5154  -9.4912  -4.9777  -3.6630  -3.3848  -0.0329
     0.8850   1.9668   3.6626   5.2206   5.5644   5.8751   6.2876   6.3324

     occupation numbers 
     1.0000   1.0000   1.0000   1.0000   1.0000   1.0000   1.0000   1.0000
     1.0000   1.0000   1.0000   1.0000   1.0000   1.0000   1.0000   0.0000
     0.0000   0.0000   0.0000   0.0000   0.0000   0.0000   0.0000   0.0000

          k = 0.4688-0.8360-0.0990 ( 10904 PWs)   bands (ev):

   -38.3186 -38.3139 -38.2741 -38.2729 -38.2546 -26.1415 -26.1338 -26.0877
   -26.0841 -26.0591 -12.4997  -9.5027  -4.9757  -3.7337  -3.3763   0.0533
     0.8673   1.9321   3.6738   5.3469   5.5567   5.8469   6.3192   6.4358

     occupation numbers 
     1.0000   1.0000   1.0000   1.0000   1.0000   1.0000   1.0000   1.0000
     1.0000   1.0000   1.0000   1.0000   1.0000   1.0000   1.0000   0.0000
     0.0000   0.0000   0.0000   0.0000   0.0000   0.0000   0.0000   0.0000

          k = 0.4688-0.8119-0.0990 ( 10894 PWs)   bands (ev):

   -38.3185 -38.3140 -38.2741 -38.2729 -38.2546 -26.1414 -26.1339 -26.0877
   -26.0842 -26.0590 -12.4858  -9.5071  -4.9811  -3.8246  -3.3610   0.1766
     0.8517   1.8826   3.7019   5.4660   5.5314   5.8660   6.3104   6.5838

     occupation numbers 
     1.0000   1.0000   1.0000   1.0000   1.0000   1.0000   1.0000   1.0000
     1.0000   1.0000   1.0000   1.0000   1.0000   1.0000   1.0000   0.0000
     0.0000   0.0000   0.0000   0.0000   0.0000   0.0000   0.0000   0.0000

          k = 0.4896 0.2827-0.0990 ( 10914 PWs)   bands (ev):

   -38.3186 -38.3139 -38.2741 -38.2729 -38.2546 -26.1416 -26.1337 -26.0877
   -26.0841 -26.0591 -12.5086  -9.5023  -4.9718  -3.6393  -3.4064  -0.0517
     0.8766   1.9786   3.6497   5.3095   5.5267   5.8272   6.3183   6.4186

     occupation numbers 
     1.0000   1.0000   1.0000   1.0000   1.0000   1.0000   1.0000   1.0000
     1.0000   1.0000   1.0000   1.0000   1.0000   1.0000   1.0000   0.0000
     0.0000   0.0000   0.0000   0.0000   0.0000   0.0000   0.0000   0.0000

          k = 0.4896-0.8480-0.0990 ( 10912 PWs)   bands (ev):

   -38.3186 -38.3139 -38.2741 -38.2729 -38.2546 -26.1416 -26.1338 -26.0877
   -26.0841 -26.0591 -12.5034  -9.5061  -4.9709  -3.6668  -3.4005  -0.0219
     0.8706   1.9663   3.6534   5.3752   5.4995   5.8195   6.3187   6.5465

     occupation numbers 
     1.0000   1.0000   1.0000   1.0000   1.0000   1.0000   1.0000   1.0000
     1.0000   1.0000   1.0000   1.0000   1.0000   1.0000   1.0000   0.0000
     0.0000   0.0000   0.0000   0.0000   0.0000   0.0000   0.0000   0.0000

     the Fermi energy is    -2.1867 ev
     (compare with:    -2.1867 eV, computed in scf)

     Writing output data file ./work/GeTe-mono.save/
 
     init_run     :      0.21s CPU      0.23s WALL (       1 calls)
     electrons    :    217.37s CPU    237.79s WALL (       1 calls)

     Called by init_run:
     wfcinit      :      0.00s CPU      0.00s WALL (       1 calls)
     wfcinit:atom :      0.00s CPU      0.01s WALL (     600 calls)
     wfcinit:wfcr :      3.61s CPU      4.34s WALL (     600 calls)
     potinit      :      0.03s CPU      0.04s WALL (       1 calls)
     hinit0       :      0.07s CPU      0.07s WALL (       1 calls)

     Called by electrons:
     c_bands      :    217.22s CPU    237.64s WALL (       1 calls)
     v_of_rho     :      0.03s CPU      0.03s WALL (       1 calls)
     v_h          :      0.00s CPU      0.00s WALL (       1 calls)
     v_xc         :      0.02s CPU      0.03s WALL (       1 calls)

     Called by c_bands:
     init_us_2    :      0.07s CPU      0.09s WALL (     600 calls)
     cegterg      :    211.95s CPU    230.29s WALL (    2298 calls)

     Called by sum_band:

     Called by *egterg:
     cdiaghg      :     33.87s CPU     36.74s WALL (   41559 calls)
     cegterg:over :      8.61s CPU      9.62s WALL (   40959 calls)
     cegterg:upda :      3.45s CPU      3.67s WALL (   40959 calls)
     cegterg:last :      5.52s CPU      6.01s WALL (   25242 calls)
     h_psi        :    158.62s CPU    172.81s WALL (   43857 calls)
     g_psi        :      1.12s CPU      1.14s WALL (   40959 calls)

     Called by h_psi:
     h_psi:calbec :      5.02s CPU      5.42s WALL (   43857 calls)
     vloc_psi     :    150.42s CPU    163.88s WALL (   43857 calls)
     add_vuspsi   :      2.62s CPU      2.83s WALL (   43857 calls)

     General routines
     calbec       :      4.89s CPU      5.32s WALL (   43857 calls)
     fft          :      0.01s CPU      0.02s WALL (      11 calls)
     ffts         :      0.00s CPU      0.00s WALL (       1 calls)
     fftw         :    137.30s CPU    149.78s WALL ( 1254414 calls)
     interpolate  :      0.00s CPU      0.00s WALL (       1 calls)
     davcio       :      0.42s CPU      1.59s WALL (    1200 calls)
 
     Parallel routines
     fft_scatt_xy :     16.44s CPU     17.68s WALL ( 1254426 calls)
     fft_scatt_yz :     68.10s CPU     74.68s WALL ( 1254426 calls)
 
     PWSCF        :   3m39.92s CPU   4m 2.35s WALL

 
   This run was terminated on:  23:40:43  12Sep2021            

=------------------------------------------------------------------------------=
   JOB DONE.
=------------------------------------------------------------------------------=
