
     Program PWSCF v.6.7MaX starts on 12Sep2021 at 23:33:11 

     This program is part of the open-source Quantum ESPRESSO suite
     for quantum simulation of materials; please cite
         "P. Giannozzi et al., J. Phys.:Condens. Matter 21 395502 (2009);
         "P. Giannozzi et al., J. Phys.:Condens. Matter 29 465901 (2017);
          URL http://www.quantum-espresso.org", 
     in publications or presentations arising from this work. More details at
     http://www.quantum-espresso.org/quote

     Parallel version (MPI), running on    20 processors

     MPI processes distributed on     1 nodes
     R & G space division:  proc/nbgrp/npool/nimage =      20
     Waiting for input...
     Reading input from standard input

     Current dimensions of program PWSCF are:
     Max number of different atomic species (ntypx) = 10
     Max number of k-points (npk) =  40000
     Max angular momentum in pseudopotentials (lmaxx) =  3
     Message from routine read_pp_mesh:
     mesh size missing, using the one in header
     Message from routine read_pp_mesh:
     mesh size missing, using the one in header

     Subspace diagonalization in iterative solution of the eigenvalue problem:
     a serial algorithm will be used

     Message from routine setup:
     no reason to have ecutrho>4*ecutwfc
     Message from routine setup:
     using ibrav=0 with symmetry is DISCOURAGED, use correct ibrav instead
 
     Parallelization info
     --------------------
     sticks:   dense  smooth     PW     G-vecs:    dense   smooth      PW
     Min         116      38     12                22746     4364     760
     Max         117      39     13                22761     4379     777
     Sum        2335     769    241               455125    87447   15299
 


     bravais-lattice index     =            0
     lattice parameter (alat)  =       7.4847  a.u.
     unit-cell volume          =    1833.6240 (a.u.)^3
     number of atoms/cell      =            2
     number of atomic types    =            2
     number of electrons       =        30.00
     number of Kohn-Sham states=           24
     kinetic-energy cutoff     =      50.0000  Ry
     charge density cutoff     =     600.0000  Ry
     scf convergence threshold =      1.0E-09
     mixing beta               =       0.7000
     number of iterations used =            8  plain     mixing
     Exchange-correlation= PBE
                           (   1   4   3   4   0   0   0)

     celldm(1)=   7.484717  celldm(2)=   0.000000  celldm(3)=   0.000000
     celldm(4)=   0.000000  celldm(5)=   0.000000  celldm(6)=   0.000000

     crystal axes: (cart. coord. in units of alat)
               a(1) = (   1.000000   0.000000   0.000000 )  
               a(2) = (   0.500000   0.866025   0.000000 )  
               a(3) = (   0.000000   0.000000   5.049559 )  

     reciprocal axes: (cart. coord. in units 2 pi/alat)
               b(1) = (  1.000000 -0.577350  0.000000 )  
               b(2) = (  0.000000  1.154701  0.000000 )  
               b(3) = (  0.000000  0.000000  0.198037 )  


     PseudoPot. # 1 for Ge read from file:
     ../pseudo/Ge_ONCV_PBE-1.2.upf
     MD5 check sum: 9f45083245c564cb2163622d60d05ca9
     Pseudo is Norm-conserving, Zval = 14.0
     Generated using ONCVPSP code by D. R. Hamann
     Using radial grid of  602 points,  6 beta functions with: 
                l(1) =   0
                l(2) =   0
                l(3) =   1
                l(4) =   1
                l(5) =   2
                l(6) =   2

     PseudoPot. # 2 for Te read from file:
     ../pseudo/Te_ONCV_PBE-1.2.upf
     MD5 check sum: dd4de4dac1e38587f63aaf3700bb29d3
     Pseudo is Norm-conserving, Zval = 16.0
     Generated using ONCVPSP code by D. R. Hamann
     Using radial grid of  602 points,  6 beta functions with: 
                l(1) =   0
                l(2) =   0
                l(3) =   1
                l(4) =   1
                l(5) =   2
                l(6) =   2

     atomic species   valence    mass     pseudopotential
        Ge            14.00    72.63000     Ge( 1.00)
        Te            16.00   127.60000     Te( 1.00)

      6 Sym. Ops. (no inversion) found



   Cartesian axes

     site n.     atom                  positions (alat units)
         1           Ge  tau(   1) = (   0.0000000   0.0000000   0.0000000  )
         2           Te  tau(   2) = (   1.0000000   0.5773503   0.3928870  )

     number of k points=   600

     Number of k-points >= 100: set verbosity='high' to print them.

     Dense  grid:   455125 G-vectors     FFT dimensions: (  60,  60, 300)

     Smooth grid:    87447 G-vectors     FFT dimensions: (  36,  36, 180)

     Estimated max dynamical RAM per process >     139.26 MB

     Estimated total dynamical RAM >       2.72 GB

     Initial potential from superposition of free atoms

     starting charge   29.90735, renormalised to   30.00000

     negative rho (up, down):  3.472E-04 0.000E+00
     Starting wfcs are random

     total cpu time spent up to now is        5.1 secs

     Self-consistent Calculation

     iteration #  1     ecut=    50.00 Ry     beta= 0.70
     Davidson diagonalization with overlap
     ethr =  1.00E-02,  avg # of iterations = 10.7

     Threshold (ethr) on eigenvalues was too large:
     Diagonalizing with lowered threshold

     Davidson diagonalization with overlap
     ethr =  7.76E-05,  avg # of iterations =  7.5

     negative rho (up, down):  2.521E-05 0.000E+00

     total cpu time spent up to now is       78.6 secs

     total energy              =    -316.35185302 Ry
     estimated scf accuracy    <       0.01827272 Ry

     iteration #  2     ecut=    50.00 Ry     beta= 0.70
     Davidson diagonalization with overlap
     ethr =  6.09E-05,  avg # of iterations =  2.7

     negative rho (up, down):  8.418E-06 0.000E+00

     total cpu time spent up to now is       94.3 secs

     total energy              =    -316.35395660 Ry
     estimated scf accuracy    <       0.00356405 Ry

     iteration #  3     ecut=    50.00 Ry     beta= 0.70
     Davidson diagonalization with overlap
     c_bands:  1 eigenvalues not converged
     ethr =  1.19E-05,  avg # of iterations =  5.4

     negative rho (up, down):  4.976E-06 0.000E+00

     total cpu time spent up to now is      113.8 secs

     total energy              =    -316.35413792 Ry
     estimated scf accuracy    <       0.00318945 Ry

     iteration #  4     ecut=    50.00 Ry     beta= 0.70
     Davidson diagonalization with overlap
     c_bands:  1 eigenvalues not converged
     c_bands:  1 eigenvalues not converged
     ethr =  1.06E-05,  avg # of iterations =  4.2

     negative rho (up, down):  1.432E-06 0.000E+00

     total cpu time spent up to now is      130.7 secs

     total energy              =    -316.35454469 Ry
     estimated scf accuracy    <       0.00494032 Ry

     iteration #  5     ecut=    50.00 Ry     beta= 0.70
     Davidson diagonalization with overlap
     ethr =  1.06E-05,  avg # of iterations =  2.2

     negative rho (up, down):  3.121E-08 0.000E+00

     total cpu time spent up to now is      144.2 secs

     total energy              =    -316.35515437 Ry
     estimated scf accuracy    <       0.00000792 Ry

     iteration #  6     ecut=    50.00 Ry     beta= 0.70
     Davidson diagonalization with overlap
     ethr =  2.64E-08,  avg # of iterations =  4.8

     negative rho (up, down):  1.809E-08 0.000E+00

     total cpu time spent up to now is      161.8 secs

     total energy              =    -316.35515744 Ry
     estimated scf accuracy    <       0.00000061 Ry

     iteration #  7     ecut=    50.00 Ry     beta= 0.70
     Davidson diagonalization with overlap
     ethr =  2.05E-09,  avg # of iterations =  2.1

     total cpu time spent up to now is      175.8 secs

     total energy              =    -316.35515758 Ry
     estimated scf accuracy    <       0.00000003 Ry

     iteration #  8     ecut=    50.00 Ry     beta= 0.70
     Davidson diagonalization with overlap
     ethr =  1.15E-10,  avg # of iterations =  2.6

     total cpu time spent up to now is      191.0 secs

     total energy              =    -316.35515759 Ry
     estimated scf accuracy    <          3.4E-09 Ry

     iteration #  9     ecut=    50.00 Ry     beta= 0.70
     Davidson diagonalization with overlap
     ethr =  1.13E-11,  avg # of iterations =  2.5

     total cpu time spent up to now is      205.5 secs

     End of self-consistent calculation

     Number of k-points >= 100: set verbosity='high' to print the bands.

     highest occupied, lowest unoccupied level (ev):    -2.1867   -0.3830

!    total energy              =    -316.35515760 Ry
     estimated scf accuracy    <          1.0E-10 Ry

     The total energy is the sum of the following terms:
     one-electron contribution =   -1181.74497325 Ry
     hartree contribution      =     588.03830211 Ry
     xc contribution           =     -35.82531043 Ry
     ewald contribution        =     313.17682398 Ry

     convergence has been achieved in   9 iterations

     Writing output data file ./work/GeTe-mono.save/
 
     init_run     :      4.62s CPU      5.10s WALL (       1 calls)
     electrons    :    185.15s CPU    200.42s WALL (       1 calls)

     Called by init_run:
     wfcinit      :      4.34s CPU      4.79s WALL (       1 calls)
     potinit      :      0.10s CPU      0.11s WALL (       1 calls)
     hinit0       :      0.07s CPU      0.07s WALL (       1 calls)

     Called by electrons:
     c_bands      :    163.99s CPU    177.39s WALL (      10 calls)
     sum_band     :     20.88s CPU     22.69s WALL (      10 calls)
     v_of_rho     :      0.26s CPU      0.27s WALL (      10 calls)
     mix_rho      :      0.02s CPU      0.07s WALL (      10 calls)

     Called by c_bands:
     init_us_2    :      2.53s CPU      2.70s WALL (   12600 calls)
     cegterg      :    155.21s CPU    168.28s WALL (    6000 calls)

     Called by *egterg:
     cdiaghg      :     23.65s CPU     24.91s WALL (   32061 calls)
     h_psi        :    120.94s CPU    131.86s WALL (   33261 calls)
     g_psi        :      0.58s CPU      0.66s WALL (   26661 calls)

     Called by h_psi:
     h_psi:calbec :      3.75s CPU      4.17s WALL (   33261 calls)
     vloc_psi     :    114.65s CPU    125.08s WALL (   33261 calls)
     add_vuspsi   :      1.97s CPU      2.01s WALL (   33261 calls)

     General routines
     calbec       :      3.70s CPU      4.09s WALL (   33261 calls)
     fft          :      0.12s CPU      0.13s WALL (     118 calls)
     ffts         :      0.01s CPU      0.00s WALL (      20 calls)
     fftw         :    121.63s CPU    132.86s WALL ( 1100008 calls)
     interpolate  :      0.01s CPU      0.01s WALL (      10 calls)
 
     Parallel routines
     fft_scatt_xy :     14.72s CPU     16.34s WALL ( 1100146 calls)
     fft_scatt_yz :     58.94s CPU     65.05s WALL ( 1100146 calls)
 
     PWSCF        :   3m11.36s CPU   3m29.46s WALL

 
   This run was terminated on:  23:36:40  12Sep2021            

=------------------------------------------------------------------------------=
   JOB DONE.
=------------------------------------------------------------------------------=
