
     Program PWSCF v.6.7MaX starts on 13Sep2021 at  0:20:51 

     This program is part of the open-source Quantum ESPRESSO suite
     for quantum simulation of materials; please cite
         "P. Giannozzi et al., J. Phys.:Condens. Matter 21 395502 (2009);
         "P. Giannozzi et al., J. Phys.:Condens. Matter 29 465901 (2017);
          URL http://www.quantum-espresso.org", 
     in publications or presentations arising from this work. More details at
     http://www.quantum-espresso.org/quote

     Parallel version (MPI), running on    20 processors

     MPI processes distributed on     1 nodes
     R & G space division:  proc/nbgrp/npool/nimage =      20
     Waiting for input...
     Reading input from standard input

     Current dimensions of program PWSCF are:
     Max number of different atomic species (ntypx) = 10
     Max number of k-points (npk) =  40000
     Max angular momentum in pseudopotentials (lmaxx) =  3
     Message from routine read_pp_mesh:
     mesh size missing, using the one in header
     Message from routine read_pp_mesh:
     mesh size missing, using the one in header

     Subspace diagonalization in iterative solution of the eigenvalue problem:
     a serial algorithm will be used

     Message from routine setup:
     no reason to have ecutrho>4*ecutwfc
     Message from routine setup:
     using ibrav=0 with symmetry is DISCOURAGED, use correct ibrav instead
 
     Parallelization info
     --------------------
     sticks:   dense  smooth     PW     G-vecs:    dense   smooth      PW
     Min         158      52     14                31098     5974     910
     Max         159      53     15                31109     5993     937
     Sum        3163    1049    299               622029   119627   18573
 


     bravais-lattice index     =            0
     lattice parameter (alat)  =       8.0079  a.u.
     unit-cell volume          =    2506.4848 (a.u.)^3
     number of atoms/cell      =            4
     number of atomic types    =            2
     number of electrons       =        60.00
     number of Kohn-Sham states=           60
     kinetic-energy cutoff     =      50.0000  Ry
     charge density cutoff     =     600.0000  Ry
     scf convergence threshold =      1.0E-09
     mixing beta               =       0.7000
     number of iterations used =            8  plain     mixing
     Exchange-correlation= PBE
                           (   1   4   3   4   0   0   0)

     celldm(1)=   8.007887  celldm(2)=   0.000000  celldm(3)=   0.000000
     celldm(4)=   0.000000  celldm(5)=   0.000000  celldm(6)=   0.000000

     crystal axes: (cart. coord. in units of alat)
               a(1) = (   1.000000   0.000000   0.000000 )  
               a(2) = (   0.000000   1.034190   0.000000 )  
               a(3) = (   0.000000   0.000000   4.719662 )  

     reciprocal axes: (cart. coord. in units 2 pi/alat)
               b(1) = (  1.000000  0.000000  0.000000 )  
               b(2) = (  0.000000  0.966940  0.000000 )  
               b(3) = (  0.000000  0.000000  0.211880 )  


     PseudoPot. # 1 for Ge read from file:
     ../../pseudo/Ge_ONCV_PBE-1.2.upf
     MD5 check sum: 9f45083245c564cb2163622d60d05ca9
     Pseudo is Norm-conserving, Zval = 14.0
     Generated using ONCVPSP code by D. R. Hamann
     Using radial grid of  602 points,  6 beta functions with: 
                l(1) =   0
                l(2) =   0
                l(3) =   1
                l(4) =   1
                l(5) =   2
                l(6) =   2

     PseudoPot. # 2 for Te read from file:
     ../../pseudo/Te_ONCV_PBE-1.2.upf
     MD5 check sum: dd4de4dac1e38587f63aaf3700bb29d3
     Pseudo is Norm-conserving, Zval = 16.0
     Generated using ONCVPSP code by D. R. Hamann
     Using radial grid of  602 points,  6 beta functions with: 
                l(1) =   0
                l(2) =   0
                l(3) =   1
                l(4) =   1
                l(5) =   2
                l(6) =   2

     atomic species   valence    mass     pseudopotential
        Ge            14.00    72.63000     Ge( 1.00)
        Te            16.00   127.60000     Te( 1.00)

      2 Sym. Ops. (no inversion) found


                                    s                        frac. trans.

      isym =  1     identity                                     

 cryst.   s( 1) = (     1          0          0      )
                  (     0          1          0      )
                  (     0          0          1      )

 cart.    s( 1) = (  1.0000000  0.0000000  0.0000000 )
                  (  0.0000000  1.0000000  0.0000000 )
                  (  0.0000000  0.0000000  1.0000000 )


      isym =  2     inv. 180 deg rotation - cart. axis [1,0,0]   

 cryst.   s( 2) = (    -1          0          0      )
                  (     0          1          0      )
                  (     0          0          1      )

 cart.    s( 2) = ( -1.0000000  0.0000000  0.0000000 )
                  (  0.0000000  1.0000000  0.0000000 )
                  (  0.0000000  0.0000000  1.0000000 )


   Cartesian axes

     site n.     atom                  positions (alat units)
         1           Ge  tau(   1) = (   0.0000000   0.4852822   1.6614487  )
         2           Ge  tau(   2) = (   0.5000000   1.0023560   1.0938804  )
         3           Te  tau(   3) = (   0.5000000   0.0318432   1.7374834  )
         4           Te  tau(   4) = (   0.0000000   0.5488986   1.0178653  )

   Crystallographic axes

     site n.     atom                  positions (cryst. coord.)
         1           Ge  tau(   1) = (  0.0000000  0.4692389  0.3520270  )
         2           Ge  tau(   2) = (  0.5000000  0.9692184  0.2317709  )
         3           Te  tau(   3) = (  0.5000000  0.0307905  0.3681372  )
         4           Te  tau(   4) = (  0.0000000  0.5307522  0.2156648  )

     number of k points=   576 (tetrahedron method)
                       cart. coord. in units 2pi/alat
        k(    1) = (   0.0104167   0.0100723  -0.1059398), wk =   0.0034722
        k(    2) = (   0.0104167   0.0302169  -0.1059398), wk =   0.0034722
        k(    3) = (   0.0104167   0.0503615  -0.1059398), wk =   0.0034722
        k(    4) = (   0.0104167   0.0705061  -0.1059398), wk =   0.0034722
        k(    5) = (   0.0104167   0.0906507  -0.1059398), wk =   0.0034722
        k(    6) = (   0.0104167   0.1107952  -0.1059398), wk =   0.0034722
        k(    7) = (   0.0104167   0.1309398  -0.1059398), wk =   0.0034722
        k(    8) = (   0.0104167   0.1510844  -0.1059398), wk =   0.0034722
        k(    9) = (   0.0104167   0.1712290  -0.1059398), wk =   0.0034722
        k(   10) = (   0.0104167   0.1913736  -0.1059398), wk =   0.0034722
        k(   11) = (   0.0104167   0.2115182  -0.1059398), wk =   0.0034722
        k(   12) = (   0.0104167   0.2316628  -0.1059398), wk =   0.0034722
        k(   13) = (   0.0104167   0.2518074  -0.1059398), wk =   0.0034722
        k(   14) = (   0.0104167   0.2719520  -0.1059398), wk =   0.0034722
        k(   15) = (   0.0104167   0.2920965  -0.1059398), wk =   0.0034722
        k(   16) = (   0.0104167   0.3122411  -0.1059398), wk =   0.0034722
        k(   17) = (   0.0104167   0.3323857  -0.1059398), wk =   0.0034722
        k(   18) = (   0.0104167   0.3525303  -0.1059398), wk =   0.0034722
        k(   19) = (   0.0104167   0.3726749  -0.1059398), wk =   0.0034722
        k(   20) = (   0.0104167   0.3928195  -0.1059398), wk =   0.0034722
        k(   21) = (   0.0104167   0.4129641  -0.1059398), wk =   0.0034722
        k(   22) = (   0.0104167   0.4331087  -0.1059398), wk =   0.0034722
        k(   23) = (   0.0104167   0.4532533  -0.1059398), wk =   0.0034722
        k(   24) = (   0.0104167   0.4733978  -0.1059398), wk =   0.0034722
        k(   25) = (   0.0312500   0.0100723  -0.1059398), wk =   0.0034722
        k(   26) = (   0.0312500   0.0302169  -0.1059398), wk =   0.0034722
        k(   27) = (   0.0312500   0.0503615  -0.1059398), wk =   0.0034722
        k(   28) = (   0.0312500   0.0705061  -0.1059398), wk =   0.0034722
        k(   29) = (   0.0312500   0.0906507  -0.1059398), wk =   0.0034722
        k(   30) = (   0.0312500   0.1107952  -0.1059398), wk =   0.0034722
        k(   31) = (   0.0312500   0.1309398  -0.1059398), wk =   0.0034722
        k(   32) = (   0.0312500   0.1510844  -0.1059398), wk =   0.0034722
        k(   33) = (   0.0312500   0.1712290  -0.1059398), wk =   0.0034722
        k(   34) = (   0.0312500   0.1913736  -0.1059398), wk =   0.0034722
        k(   35) = (   0.0312500   0.2115182  -0.1059398), wk =   0.0034722
        k(   36) = (   0.0312500   0.2316628  -0.1059398), wk =   0.0034722
        k(   37) = (   0.0312500   0.2518074  -0.1059398), wk =   0.0034722
        k(   38) = (   0.0312500   0.2719520  -0.1059398), wk =   0.0034722
        k(   39) = (   0.0312500   0.2920965  -0.1059398), wk =   0.0034722
        k(   40) = (   0.0312500   0.3122411  -0.1059398), wk =   0.0034722
        k(   41) = (   0.0312500   0.3323857  -0.1059398), wk =   0.0034722
        k(   42) = (   0.0312500   0.3525303  -0.1059398), wk =   0.0034722
        k(   43) = (   0.0312500   0.3726749  -0.1059398), wk =   0.0034722
        k(   44) = (   0.0312500   0.3928195  -0.1059398), wk =   0.0034722
        k(   45) = (   0.0312500   0.4129641  -0.1059398), wk =   0.0034722
        k(   46) = (   0.0312500   0.4331087  -0.1059398), wk =   0.0034722
        k(   47) = (   0.0312500   0.4532533  -0.1059398), wk =   0.0034722
        k(   48) = (   0.0312500   0.4733978  -0.1059398), wk =   0.0034722
        k(   49) = (   0.0520833   0.0100723  -0.1059398), wk =   0.0034722
        k(   50) = (   0.0520833   0.0302169  -0.1059398), wk =   0.0034722
        k(   51) = (   0.0520833   0.0503615  -0.1059398), wk =   0.0034722
        k(   52) = (   0.0520833   0.0705061  -0.1059398), wk =   0.0034722
        k(   53) = (   0.0520833   0.0906507  -0.1059398), wk =   0.0034722
        k(   54) = (   0.0520833   0.1107952  -0.1059398), wk =   0.0034722
        k(   55) = (   0.0520833   0.1309398  -0.1059398), wk =   0.0034722
        k(   56) = (   0.0520833   0.1510844  -0.1059398), wk =   0.0034722
        k(   57) = (   0.0520833   0.1712290  -0.1059398), wk =   0.0034722
        k(   58) = (   0.0520833   0.1913736  -0.1059398), wk =   0.0034722
        k(   59) = (   0.0520833   0.2115182  -0.1059398), wk =   0.0034722
        k(   60) = (   0.0520833   0.2316628  -0.1059398), wk =   0.0034722
        k(   61) = (   0.0520833   0.2518074  -0.1059398), wk =   0.0034722
        k(   62) = (   0.0520833   0.2719520  -0.1059398), wk =   0.0034722
        k(   63) = (   0.0520833   0.2920965  -0.1059398), wk =   0.0034722
        k(   64) = (   0.0520833   0.3122411  -0.1059398), wk =   0.0034722
        k(   65) = (   0.0520833   0.3323857  -0.1059398), wk =   0.0034722
        k(   66) = (   0.0520833   0.3525303  -0.1059398), wk =   0.0034722
        k(   67) = (   0.0520833   0.3726749  -0.1059398), wk =   0.0034722
        k(   68) = (   0.0520833   0.3928195  -0.1059398), wk =   0.0034722
        k(   69) = (   0.0520833   0.4129641  -0.1059398), wk =   0.0034722
        k(   70) = (   0.0520833   0.4331087  -0.1059398), wk =   0.0034722
        k(   71) = (   0.0520833   0.4532533  -0.1059398), wk =   0.0034722
        k(   72) = (   0.0520833   0.4733978  -0.1059398), wk =   0.0034722
        k(   73) = (   0.0729167   0.0100723  -0.1059398), wk =   0.0034722
        k(   74) = (   0.0729167   0.0302169  -0.1059398), wk =   0.0034722
        k(   75) = (   0.0729167   0.0503615  -0.1059398), wk =   0.0034722
        k(   76) = (   0.0729167   0.0705061  -0.1059398), wk =   0.0034722
        k(   77) = (   0.0729167   0.0906507  -0.1059398), wk =   0.0034722
        k(   78) = (   0.0729167   0.1107952  -0.1059398), wk =   0.0034722
        k(   79) = (   0.0729167   0.1309398  -0.1059398), wk =   0.0034722
        k(   80) = (   0.0729167   0.1510844  -0.1059398), wk =   0.0034722
        k(   81) = (   0.0729167   0.1712290  -0.1059398), wk =   0.0034722
        k(   82) = (   0.0729167   0.1913736  -0.1059398), wk =   0.0034722
        k(   83) = (   0.0729167   0.2115182  -0.1059398), wk =   0.0034722
        k(   84) = (   0.0729167   0.2316628  -0.1059398), wk =   0.0034722
        k(   85) = (   0.0729167   0.2518074  -0.1059398), wk =   0.0034722
        k(   86) = (   0.0729167   0.2719520  -0.1059398), wk =   0.0034722
        k(   87) = (   0.0729167   0.2920965  -0.1059398), wk =   0.0034722
        k(   88) = (   0.0729167   0.3122411  -0.1059398), wk =   0.0034722
        k(   89) = (   0.0729167   0.3323857  -0.1059398), wk =   0.0034722
        k(   90) = (   0.0729167   0.3525303  -0.1059398), wk =   0.0034722
        k(   91) = (   0.0729167   0.3726749  -0.1059398), wk =   0.0034722
        k(   92) = (   0.0729167   0.3928195  -0.1059398), wk =   0.0034722
        k(   93) = (   0.0729167   0.4129641  -0.1059398), wk =   0.0034722
        k(   94) = (   0.0729167   0.4331087  -0.1059398), wk =   0.0034722
        k(   95) = (   0.0729167   0.4532533  -0.1059398), wk =   0.0034722
        k(   96) = (   0.0729167   0.4733978  -0.1059398), wk =   0.0034722
        k(   97) = (   0.0937500   0.0100723  -0.1059398), wk =   0.0034722
        k(   98) = (   0.0937500   0.0302169  -0.1059398), wk =   0.0034722
        k(   99) = (   0.0937500   0.0503615  -0.1059398), wk =   0.0034722
        k(  100) = (   0.0937500   0.0705061  -0.1059398), wk =   0.0034722
        k(  101) = (   0.0937500   0.0906507  -0.1059398), wk =   0.0034722
        k(  102) = (   0.0937500   0.1107952  -0.1059398), wk =   0.0034722
        k(  103) = (   0.0937500   0.1309398  -0.1059398), wk =   0.0034722
        k(  104) = (   0.0937500   0.1510844  -0.1059398), wk =   0.0034722
        k(  105) = (   0.0937500   0.1712290  -0.1059398), wk =   0.0034722
        k(  106) = (   0.0937500   0.1913736  -0.1059398), wk =   0.0034722
        k(  107) = (   0.0937500   0.2115182  -0.1059398), wk =   0.0034722
        k(  108) = (   0.0937500   0.2316628  -0.1059398), wk =   0.0034722
        k(  109) = (   0.0937500   0.2518074  -0.1059398), wk =   0.0034722
        k(  110) = (   0.0937500   0.2719520  -0.1059398), wk =   0.0034722
        k(  111) = (   0.0937500   0.2920965  -0.1059398), wk =   0.0034722
        k(  112) = (   0.0937500   0.3122411  -0.1059398), wk =   0.0034722
        k(  113) = (   0.0937500   0.3323857  -0.1059398), wk =   0.0034722
        k(  114) = (   0.0937500   0.3525303  -0.1059398), wk =   0.0034722
        k(  115) = (   0.0937500   0.3726749  -0.1059398), wk =   0.0034722
        k(  116) = (   0.0937500   0.3928195  -0.1059398), wk =   0.0034722
        k(  117) = (   0.0937500   0.4129641  -0.1059398), wk =   0.0034722
        k(  118) = (   0.0937500   0.4331087  -0.1059398), wk =   0.0034722
        k(  119) = (   0.0937500   0.4532533  -0.1059398), wk =   0.0034722
        k(  120) = (   0.0937500   0.4733978  -0.1059398), wk =   0.0034722
        k(  121) = (   0.1145833   0.0100723  -0.1059398), wk =   0.0034722
        k(  122) = (   0.1145833   0.0302169  -0.1059398), wk =   0.0034722
        k(  123) = (   0.1145833   0.0503615  -0.1059398), wk =   0.0034722
        k(  124) = (   0.1145833   0.0705061  -0.1059398), wk =   0.0034722
        k(  125) = (   0.1145833   0.0906507  -0.1059398), wk =   0.0034722
        k(  126) = (   0.1145833   0.1107952  -0.1059398), wk =   0.0034722
        k(  127) = (   0.1145833   0.1309398  -0.1059398), wk =   0.0034722
        k(  128) = (   0.1145833   0.1510844  -0.1059398), wk =   0.0034722
        k(  129) = (   0.1145833   0.1712290  -0.1059398), wk =   0.0034722
        k(  130) = (   0.1145833   0.1913736  -0.1059398), wk =   0.0034722
        k(  131) = (   0.1145833   0.2115182  -0.1059398), wk =   0.0034722
        k(  132) = (   0.1145833   0.2316628  -0.1059398), wk =   0.0034722
        k(  133) = (   0.1145833   0.2518074  -0.1059398), wk =   0.0034722
        k(  134) = (   0.1145833   0.2719520  -0.1059398), wk =   0.0034722
        k(  135) = (   0.1145833   0.2920965  -0.1059398), wk =   0.0034722
        k(  136) = (   0.1145833   0.3122411  -0.1059398), wk =   0.0034722
        k(  137) = (   0.1145833   0.3323857  -0.1059398), wk =   0.0034722
        k(  138) = (   0.1145833   0.3525303  -0.1059398), wk =   0.0034722
        k(  139) = (   0.1145833   0.3726749  -0.1059398), wk =   0.0034722
        k(  140) = (   0.1145833   0.3928195  -0.1059398), wk =   0.0034722
        k(  141) = (   0.1145833   0.4129641  -0.1059398), wk =   0.0034722
        k(  142) = (   0.1145833   0.4331087  -0.1059398), wk =   0.0034722
        k(  143) = (   0.1145833   0.4532533  -0.1059398), wk =   0.0034722
        k(  144) = (   0.1145833   0.4733978  -0.1059398), wk =   0.0034722
        k(  145) = (   0.1354167   0.0100723  -0.1059398), wk =   0.0034722
        k(  146) = (   0.1354167   0.0302169  -0.1059398), wk =   0.0034722
        k(  147) = (   0.1354167   0.0503615  -0.1059398), wk =   0.0034722
        k(  148) = (   0.1354167   0.0705061  -0.1059398), wk =   0.0034722
        k(  149) = (   0.1354167   0.0906507  -0.1059398), wk =   0.0034722
        k(  150) = (   0.1354167   0.1107952  -0.1059398), wk =   0.0034722
        k(  151) = (   0.1354167   0.1309398  -0.1059398), wk =   0.0034722
        k(  152) = (   0.1354167   0.1510844  -0.1059398), wk =   0.0034722
        k(  153) = (   0.1354167   0.1712290  -0.1059398), wk =   0.0034722
        k(  154) = (   0.1354167   0.1913736  -0.1059398), wk =   0.0034722
        k(  155) = (   0.1354167   0.2115182  -0.1059398), wk =   0.0034722
        k(  156) = (   0.1354167   0.2316628  -0.1059398), wk =   0.0034722
        k(  157) = (   0.1354167   0.2518074  -0.1059398), wk =   0.0034722
        k(  158) = (   0.1354167   0.2719520  -0.1059398), wk =   0.0034722
        k(  159) = (   0.1354167   0.2920965  -0.1059398), wk =   0.0034722
        k(  160) = (   0.1354167   0.3122411  -0.1059398), wk =   0.0034722
        k(  161) = (   0.1354167   0.3323857  -0.1059398), wk =   0.0034722
        k(  162) = (   0.1354167   0.3525303  -0.1059398), wk =   0.0034722
        k(  163) = (   0.1354167   0.3726749  -0.1059398), wk =   0.0034722
        k(  164) = (   0.1354167   0.3928195  -0.1059398), wk =   0.0034722
        k(  165) = (   0.1354167   0.4129641  -0.1059398), wk =   0.0034722
        k(  166) = (   0.1354167   0.4331087  -0.1059398), wk =   0.0034722
        k(  167) = (   0.1354167   0.4532533  -0.1059398), wk =   0.0034722
        k(  168) = (   0.1354167   0.4733978  -0.1059398), wk =   0.0034722
        k(  169) = (   0.1562500   0.0100723  -0.1059398), wk =   0.0034722
        k(  170) = (   0.1562500   0.0302169  -0.1059398), wk =   0.0034722
        k(  171) = (   0.1562500   0.0503615  -0.1059398), wk =   0.0034722
        k(  172) = (   0.1562500   0.0705061  -0.1059398), wk =   0.0034722
        k(  173) = (   0.1562500   0.0906507  -0.1059398), wk =   0.0034722
        k(  174) = (   0.1562500   0.1107952  -0.1059398), wk =   0.0034722
        k(  175) = (   0.1562500   0.1309398  -0.1059398), wk =   0.0034722
        k(  176) = (   0.1562500   0.1510844  -0.1059398), wk =   0.0034722
        k(  177) = (   0.1562500   0.1712290  -0.1059398), wk =   0.0034722
        k(  178) = (   0.1562500   0.1913736  -0.1059398), wk =   0.0034722
        k(  179) = (   0.1562500   0.2115182  -0.1059398), wk =   0.0034722
        k(  180) = (   0.1562500   0.2316628  -0.1059398), wk =   0.0034722
        k(  181) = (   0.1562500   0.2518074  -0.1059398), wk =   0.0034722
        k(  182) = (   0.1562500   0.2719520  -0.1059398), wk =   0.0034722
        k(  183) = (   0.1562500   0.2920965  -0.1059398), wk =   0.0034722
        k(  184) = (   0.1562500   0.3122411  -0.1059398), wk =   0.0034722
        k(  185) = (   0.1562500   0.3323857  -0.1059398), wk =   0.0034722
        k(  186) = (   0.1562500   0.3525303  -0.1059398), wk =   0.0034722
        k(  187) = (   0.1562500   0.3726749  -0.1059398), wk =   0.0034722
        k(  188) = (   0.1562500   0.3928195  -0.1059398), wk =   0.0034722
        k(  189) = (   0.1562500   0.4129641  -0.1059398), wk =   0.0034722
        k(  190) = (   0.1562500   0.4331087  -0.1059398), wk =   0.0034722
        k(  191) = (   0.1562500   0.4532533  -0.1059398), wk =   0.0034722
        k(  192) = (   0.1562500   0.4733978  -0.1059398), wk =   0.0034722
        k(  193) = (   0.1770833   0.0100723  -0.1059398), wk =   0.0034722
        k(  194) = (   0.1770833   0.0302169  -0.1059398), wk =   0.0034722
        k(  195) = (   0.1770833   0.0503615  -0.1059398), wk =   0.0034722
        k(  196) = (   0.1770833   0.0705061  -0.1059398), wk =   0.0034722
        k(  197) = (   0.1770833   0.0906507  -0.1059398), wk =   0.0034722
        k(  198) = (   0.1770833   0.1107952  -0.1059398), wk =   0.0034722
        k(  199) = (   0.1770833   0.1309398  -0.1059398), wk =   0.0034722
        k(  200) = (   0.1770833   0.1510844  -0.1059398), wk =   0.0034722
        k(  201) = (   0.1770833   0.1712290  -0.1059398), wk =   0.0034722
        k(  202) = (   0.1770833   0.1913736  -0.1059398), wk =   0.0034722
        k(  203) = (   0.1770833   0.2115182  -0.1059398), wk =   0.0034722
        k(  204) = (   0.1770833   0.2316628  -0.1059398), wk =   0.0034722
        k(  205) = (   0.1770833   0.2518074  -0.1059398), wk =   0.0034722
        k(  206) = (   0.1770833   0.2719520  -0.1059398), wk =   0.0034722
        k(  207) = (   0.1770833   0.2920965  -0.1059398), wk =   0.0034722
        k(  208) = (   0.1770833   0.3122411  -0.1059398), wk =   0.0034722
        k(  209) = (   0.1770833   0.3323857  -0.1059398), wk =   0.0034722
        k(  210) = (   0.1770833   0.3525303  -0.1059398), wk =   0.0034722
        k(  211) = (   0.1770833   0.3726749  -0.1059398), wk =   0.0034722
        k(  212) = (   0.1770833   0.3928195  -0.1059398), wk =   0.0034722
        k(  213) = (   0.1770833   0.4129641  -0.1059398), wk =   0.0034722
        k(  214) = (   0.1770833   0.4331087  -0.1059398), wk =   0.0034722
        k(  215) = (   0.1770833   0.4532533  -0.1059398), wk =   0.0034722
        k(  216) = (   0.1770833   0.4733978  -0.1059398), wk =   0.0034722
        k(  217) = (   0.1979167   0.0100723  -0.1059398), wk =   0.0034722
        k(  218) = (   0.1979167   0.0302169  -0.1059398), wk =   0.0034722
        k(  219) = (   0.1979167   0.0503615  -0.1059398), wk =   0.0034722
        k(  220) = (   0.1979167   0.0705061  -0.1059398), wk =   0.0034722
        k(  221) = (   0.1979167   0.0906507  -0.1059398), wk =   0.0034722
        k(  222) = (   0.1979167   0.1107952  -0.1059398), wk =   0.0034722
        k(  223) = (   0.1979167   0.1309398  -0.1059398), wk =   0.0034722
        k(  224) = (   0.1979167   0.1510844  -0.1059398), wk =   0.0034722
        k(  225) = (   0.1979167   0.1712290  -0.1059398), wk =   0.0034722
        k(  226) = (   0.1979167   0.1913736  -0.1059398), wk =   0.0034722
        k(  227) = (   0.1979167   0.2115182  -0.1059398), wk =   0.0034722
        k(  228) = (   0.1979167   0.2316628  -0.1059398), wk =   0.0034722
        k(  229) = (   0.1979167   0.2518074  -0.1059398), wk =   0.0034722
        k(  230) = (   0.1979167   0.2719520  -0.1059398), wk =   0.0034722
        k(  231) = (   0.1979167   0.2920965  -0.1059398), wk =   0.0034722
        k(  232) = (   0.1979167   0.3122411  -0.1059398), wk =   0.0034722
        k(  233) = (   0.1979167   0.3323857  -0.1059398), wk =   0.0034722
        k(  234) = (   0.1979167   0.3525303  -0.1059398), wk =   0.0034722
        k(  235) = (   0.1979167   0.3726749  -0.1059398), wk =   0.0034722
        k(  236) = (   0.1979167   0.3928195  -0.1059398), wk =   0.0034722
        k(  237) = (   0.1979167   0.4129641  -0.1059398), wk =   0.0034722
        k(  238) = (   0.1979167   0.4331087  -0.1059398), wk =   0.0034722
        k(  239) = (   0.1979167   0.4532533  -0.1059398), wk =   0.0034722
        k(  240) = (   0.1979167   0.4733978  -0.1059398), wk =   0.0034722
        k(  241) = (   0.2187500   0.0100723  -0.1059398), wk =   0.0034722
        k(  242) = (   0.2187500   0.0302169  -0.1059398), wk =   0.0034722
        k(  243) = (   0.2187500   0.0503615  -0.1059398), wk =   0.0034722
        k(  244) = (   0.2187500   0.0705061  -0.1059398), wk =   0.0034722
        k(  245) = (   0.2187500   0.0906507  -0.1059398), wk =   0.0034722
        k(  246) = (   0.2187500   0.1107952  -0.1059398), wk =   0.0034722
        k(  247) = (   0.2187500   0.1309398  -0.1059398), wk =   0.0034722
        k(  248) = (   0.2187500   0.1510844  -0.1059398), wk =   0.0034722
        k(  249) = (   0.2187500   0.1712290  -0.1059398), wk =   0.0034722
        k(  250) = (   0.2187500   0.1913736  -0.1059398), wk =   0.0034722
        k(  251) = (   0.2187500   0.2115182  -0.1059398), wk =   0.0034722
        k(  252) = (   0.2187500   0.2316628  -0.1059398), wk =   0.0034722
        k(  253) = (   0.2187500   0.2518074  -0.1059398), wk =   0.0034722
        k(  254) = (   0.2187500   0.2719520  -0.1059398), wk =   0.0034722
        k(  255) = (   0.2187500   0.2920965  -0.1059398), wk =   0.0034722
        k(  256) = (   0.2187500   0.3122411  -0.1059398), wk =   0.0034722
        k(  257) = (   0.2187500   0.3323857  -0.1059398), wk =   0.0034722
        k(  258) = (   0.2187500   0.3525303  -0.1059398), wk =   0.0034722
        k(  259) = (   0.2187500   0.3726749  -0.1059398), wk =   0.0034722
        k(  260) = (   0.2187500   0.3928195  -0.1059398), wk =   0.0034722
        k(  261) = (   0.2187500   0.4129641  -0.1059398), wk =   0.0034722
        k(  262) = (   0.2187500   0.4331087  -0.1059398), wk =   0.0034722
        k(  263) = (   0.2187500   0.4532533  -0.1059398), wk =   0.0034722
        k(  264) = (   0.2187500   0.4733978  -0.1059398), wk =   0.0034722
        k(  265) = (   0.2395833   0.0100723  -0.1059398), wk =   0.0034722
        k(  266) = (   0.2395833   0.0302169  -0.1059398), wk =   0.0034722
        k(  267) = (   0.2395833   0.0503615  -0.1059398), wk =   0.0034722
        k(  268) = (   0.2395833   0.0705061  -0.1059398), wk =   0.0034722
        k(  269) = (   0.2395833   0.0906507  -0.1059398), wk =   0.0034722
        k(  270) = (   0.2395833   0.1107952  -0.1059398), wk =   0.0034722
        k(  271) = (   0.2395833   0.1309398  -0.1059398), wk =   0.0034722
        k(  272) = (   0.2395833   0.1510844  -0.1059398), wk =   0.0034722
        k(  273) = (   0.2395833   0.1712290  -0.1059398), wk =   0.0034722
        k(  274) = (   0.2395833   0.1913736  -0.1059398), wk =   0.0034722
        k(  275) = (   0.2395833   0.2115182  -0.1059398), wk =   0.0034722
        k(  276) = (   0.2395833   0.2316628  -0.1059398), wk =   0.0034722
        k(  277) = (   0.2395833   0.2518074  -0.1059398), wk =   0.0034722
        k(  278) = (   0.2395833   0.2719520  -0.1059398), wk =   0.0034722
        k(  279) = (   0.2395833   0.2920965  -0.1059398), wk =   0.0034722
        k(  280) = (   0.2395833   0.3122411  -0.1059398), wk =   0.0034722
        k(  281) = (   0.2395833   0.3323857  -0.1059398), wk =   0.0034722
        k(  282) = (   0.2395833   0.3525303  -0.1059398), wk =   0.0034722
        k(  283) = (   0.2395833   0.3726749  -0.1059398), wk =   0.0034722
        k(  284) = (   0.2395833   0.3928195  -0.1059398), wk =   0.0034722
        k(  285) = (   0.2395833   0.4129641  -0.1059398), wk =   0.0034722
        k(  286) = (   0.2395833   0.4331087  -0.1059398), wk =   0.0034722
        k(  287) = (   0.2395833   0.4532533  -0.1059398), wk =   0.0034722
        k(  288) = (   0.2395833   0.4733978  -0.1059398), wk =   0.0034722
        k(  289) = (   0.2604167   0.0100723  -0.1059398), wk =   0.0034722
        k(  290) = (   0.2604167   0.0302169  -0.1059398), wk =   0.0034722
        k(  291) = (   0.2604167   0.0503615  -0.1059398), wk =   0.0034722
        k(  292) = (   0.2604167   0.0705061  -0.1059398), wk =   0.0034722
        k(  293) = (   0.2604167   0.0906507  -0.1059398), wk =   0.0034722
        k(  294) = (   0.2604167   0.1107952  -0.1059398), wk =   0.0034722
        k(  295) = (   0.2604167   0.1309398  -0.1059398), wk =   0.0034722
        k(  296) = (   0.2604167   0.1510844  -0.1059398), wk =   0.0034722
        k(  297) = (   0.2604167   0.1712290  -0.1059398), wk =   0.0034722
        k(  298) = (   0.2604167   0.1913736  -0.1059398), wk =   0.0034722
        k(  299) = (   0.2604167   0.2115182  -0.1059398), wk =   0.0034722
        k(  300) = (   0.2604167   0.2316628  -0.1059398), wk =   0.0034722
        k(  301) = (   0.2604167   0.2518074  -0.1059398), wk =   0.0034722
        k(  302) = (   0.2604167   0.2719520  -0.1059398), wk =   0.0034722
        k(  303) = (   0.2604167   0.2920965  -0.1059398), wk =   0.0034722
        k(  304) = (   0.2604167   0.3122411  -0.1059398), wk =   0.0034722
        k(  305) = (   0.2604167   0.3323857  -0.1059398), wk =   0.0034722
        k(  306) = (   0.2604167   0.3525303  -0.1059398), wk =   0.0034722
        k(  307) = (   0.2604167   0.3726749  -0.1059398), wk =   0.0034722
        k(  308) = (   0.2604167   0.3928195  -0.1059398), wk =   0.0034722
        k(  309) = (   0.2604167   0.4129641  -0.1059398), wk =   0.0034722
        k(  310) = (   0.2604167   0.4331087  -0.1059398), wk =   0.0034722
        k(  311) = (   0.2604167   0.4532533  -0.1059398), wk =   0.0034722
        k(  312) = (   0.2604167   0.4733978  -0.1059398), wk =   0.0034722
        k(  313) = (   0.2812500   0.0100723  -0.1059398), wk =   0.0034722
        k(  314) = (   0.2812500   0.0302169  -0.1059398), wk =   0.0034722
        k(  315) = (   0.2812500   0.0503615  -0.1059398), wk =   0.0034722
        k(  316) = (   0.2812500   0.0705061  -0.1059398), wk =   0.0034722
        k(  317) = (   0.2812500   0.0906507  -0.1059398), wk =   0.0034722
        k(  318) = (   0.2812500   0.1107952  -0.1059398), wk =   0.0034722
        k(  319) = (   0.2812500   0.1309398  -0.1059398), wk =   0.0034722
        k(  320) = (   0.2812500   0.1510844  -0.1059398), wk =   0.0034722
        k(  321) = (   0.2812500   0.1712290  -0.1059398), wk =   0.0034722
        k(  322) = (   0.2812500   0.1913736  -0.1059398), wk =   0.0034722
        k(  323) = (   0.2812500   0.2115182  -0.1059398), wk =   0.0034722
        k(  324) = (   0.2812500   0.2316628  -0.1059398), wk =   0.0034722
        k(  325) = (   0.2812500   0.2518074  -0.1059398), wk =   0.0034722
        k(  326) = (   0.2812500   0.2719520  -0.1059398), wk =   0.0034722
        k(  327) = (   0.2812500   0.2920965  -0.1059398), wk =   0.0034722
        k(  328) = (   0.2812500   0.3122411  -0.1059398), wk =   0.0034722
        k(  329) = (   0.2812500   0.3323857  -0.1059398), wk =   0.0034722
        k(  330) = (   0.2812500   0.3525303  -0.1059398), wk =   0.0034722
        k(  331) = (   0.2812500   0.3726749  -0.1059398), wk =   0.0034722
        k(  332) = (   0.2812500   0.3928195  -0.1059398), wk =   0.0034722
        k(  333) = (   0.2812500   0.4129641  -0.1059398), wk =   0.0034722
        k(  334) = (   0.2812500   0.4331087  -0.1059398), wk =   0.0034722
        k(  335) = (   0.2812500   0.4532533  -0.1059398), wk =   0.0034722
        k(  336) = (   0.2812500   0.4733978  -0.1059398), wk =   0.0034722
        k(  337) = (   0.3020833   0.0100723  -0.1059398), wk =   0.0034722
        k(  338) = (   0.3020833   0.0302169  -0.1059398), wk =   0.0034722
        k(  339) = (   0.3020833   0.0503615  -0.1059398), wk =   0.0034722
        k(  340) = (   0.3020833   0.0705061  -0.1059398), wk =   0.0034722
        k(  341) = (   0.3020833   0.0906507  -0.1059398), wk =   0.0034722
        k(  342) = (   0.3020833   0.1107952  -0.1059398), wk =   0.0034722
        k(  343) = (   0.3020833   0.1309398  -0.1059398), wk =   0.0034722
        k(  344) = (   0.3020833   0.1510844  -0.1059398), wk =   0.0034722
        k(  345) = (   0.3020833   0.1712290  -0.1059398), wk =   0.0034722
        k(  346) = (   0.3020833   0.1913736  -0.1059398), wk =   0.0034722
        k(  347) = (   0.3020833   0.2115182  -0.1059398), wk =   0.0034722
        k(  348) = (   0.3020833   0.2316628  -0.1059398), wk =   0.0034722
        k(  349) = (   0.3020833   0.2518074  -0.1059398), wk =   0.0034722
        k(  350) = (   0.3020833   0.2719520  -0.1059398), wk =   0.0034722
        k(  351) = (   0.3020833   0.2920965  -0.1059398), wk =   0.0034722
        k(  352) = (   0.3020833   0.3122411  -0.1059398), wk =   0.0034722
        k(  353) = (   0.3020833   0.3323857  -0.1059398), wk =   0.0034722
        k(  354) = (   0.3020833   0.3525303  -0.1059398), wk =   0.0034722
        k(  355) = (   0.3020833   0.3726749  -0.1059398), wk =   0.0034722
        k(  356) = (   0.3020833   0.3928195  -0.1059398), wk =   0.0034722
        k(  357) = (   0.3020833   0.4129641  -0.1059398), wk =   0.0034722
        k(  358) = (   0.3020833   0.4331087  -0.1059398), wk =   0.0034722
        k(  359) = (   0.3020833   0.4532533  -0.1059398), wk =   0.0034722
        k(  360) = (   0.3020833   0.4733978  -0.1059398), wk =   0.0034722
        k(  361) = (   0.3229167   0.0100723  -0.1059398), wk =   0.0034722
        k(  362) = (   0.3229167   0.0302169  -0.1059398), wk =   0.0034722
        k(  363) = (   0.3229167   0.0503615  -0.1059398), wk =   0.0034722
        k(  364) = (   0.3229167   0.0705061  -0.1059398), wk =   0.0034722
        k(  365) = (   0.3229167   0.0906507  -0.1059398), wk =   0.0034722
        k(  366) = (   0.3229167   0.1107952  -0.1059398), wk =   0.0034722
        k(  367) = (   0.3229167   0.1309398  -0.1059398), wk =   0.0034722
        k(  368) = (   0.3229167   0.1510844  -0.1059398), wk =   0.0034722
        k(  369) = (   0.3229167   0.1712290  -0.1059398), wk =   0.0034722
        k(  370) = (   0.3229167   0.1913736  -0.1059398), wk =   0.0034722
        k(  371) = (   0.3229167   0.2115182  -0.1059398), wk =   0.0034722
        k(  372) = (   0.3229167   0.2316628  -0.1059398), wk =   0.0034722
        k(  373) = (   0.3229167   0.2518074  -0.1059398), wk =   0.0034722
        k(  374) = (   0.3229167   0.2719520  -0.1059398), wk =   0.0034722
        k(  375) = (   0.3229167   0.2920965  -0.1059398), wk =   0.0034722
        k(  376) = (   0.3229167   0.3122411  -0.1059398), wk =   0.0034722
        k(  377) = (   0.3229167   0.3323857  -0.1059398), wk =   0.0034722
        k(  378) = (   0.3229167   0.3525303  -0.1059398), wk =   0.0034722
        k(  379) = (   0.3229167   0.3726749  -0.1059398), wk =   0.0034722
        k(  380) = (   0.3229167   0.3928195  -0.1059398), wk =   0.0034722
        k(  381) = (   0.3229167   0.4129641  -0.1059398), wk =   0.0034722
        k(  382) = (   0.3229167   0.4331087  -0.1059398), wk =   0.0034722
        k(  383) = (   0.3229167   0.4532533  -0.1059398), wk =   0.0034722
        k(  384) = (   0.3229167   0.4733978  -0.1059398), wk =   0.0034722
        k(  385) = (   0.3437500   0.0100723  -0.1059398), wk =   0.0034722
        k(  386) = (   0.3437500   0.0302169  -0.1059398), wk =   0.0034722
        k(  387) = (   0.3437500   0.0503615  -0.1059398), wk =   0.0034722
        k(  388) = (   0.3437500   0.0705061  -0.1059398), wk =   0.0034722
        k(  389) = (   0.3437500   0.0906507  -0.1059398), wk =   0.0034722
        k(  390) = (   0.3437500   0.1107952  -0.1059398), wk =   0.0034722
        k(  391) = (   0.3437500   0.1309398  -0.1059398), wk =   0.0034722
        k(  392) = (   0.3437500   0.1510844  -0.1059398), wk =   0.0034722
        k(  393) = (   0.3437500   0.1712290  -0.1059398), wk =   0.0034722
        k(  394) = (   0.3437500   0.1913736  -0.1059398), wk =   0.0034722
        k(  395) = (   0.3437500   0.2115182  -0.1059398), wk =   0.0034722
        k(  396) = (   0.3437500   0.2316628  -0.1059398), wk =   0.0034722
        k(  397) = (   0.3437500   0.2518074  -0.1059398), wk =   0.0034722
        k(  398) = (   0.3437500   0.2719520  -0.1059398), wk =   0.0034722
        k(  399) = (   0.3437500   0.2920965  -0.1059398), wk =   0.0034722
        k(  400) = (   0.3437500   0.3122411  -0.1059398), wk =   0.0034722
        k(  401) = (   0.3437500   0.3323857  -0.1059398), wk =   0.0034722
        k(  402) = (   0.3437500   0.3525303  -0.1059398), wk =   0.0034722
        k(  403) = (   0.3437500   0.3726749  -0.1059398), wk =   0.0034722
        k(  404) = (   0.3437500   0.3928195  -0.1059398), wk =   0.0034722
        k(  405) = (   0.3437500   0.4129641  -0.1059398), wk =   0.0034722
        k(  406) = (   0.3437500   0.4331087  -0.1059398), wk =   0.0034722
        k(  407) = (   0.3437500   0.4532533  -0.1059398), wk =   0.0034722
        k(  408) = (   0.3437500   0.4733978  -0.1059398), wk =   0.0034722
        k(  409) = (   0.3645833   0.0100723  -0.1059398), wk =   0.0034722
        k(  410) = (   0.3645833   0.0302169  -0.1059398), wk =   0.0034722
        k(  411) = (   0.3645833   0.0503615  -0.1059398), wk =   0.0034722
        k(  412) = (   0.3645833   0.0705061  -0.1059398), wk =   0.0034722
        k(  413) = (   0.3645833   0.0906507  -0.1059398), wk =   0.0034722
        k(  414) = (   0.3645833   0.1107952  -0.1059398), wk =   0.0034722
        k(  415) = (   0.3645833   0.1309398  -0.1059398), wk =   0.0034722
        k(  416) = (   0.3645833   0.1510844  -0.1059398), wk =   0.0034722
        k(  417) = (   0.3645833   0.1712290  -0.1059398), wk =   0.0034722
        k(  418) = (   0.3645833   0.1913736  -0.1059398), wk =   0.0034722
        k(  419) = (   0.3645833   0.2115182  -0.1059398), wk =   0.0034722
        k(  420) = (   0.3645833   0.2316628  -0.1059398), wk =   0.0034722
        k(  421) = (   0.3645833   0.2518074  -0.1059398), wk =   0.0034722
        k(  422) = (   0.3645833   0.2719520  -0.1059398), wk =   0.0034722
        k(  423) = (   0.3645833   0.2920965  -0.1059398), wk =   0.0034722
        k(  424) = (   0.3645833   0.3122411  -0.1059398), wk =   0.0034722
        k(  425) = (   0.3645833   0.3323857  -0.1059398), wk =   0.0034722
        k(  426) = (   0.3645833   0.3525303  -0.1059398), wk =   0.0034722
        k(  427) = (   0.3645833   0.3726749  -0.1059398), wk =   0.0034722
        k(  428) = (   0.3645833   0.3928195  -0.1059398), wk =   0.0034722
        k(  429) = (   0.3645833   0.4129641  -0.1059398), wk =   0.0034722
        k(  430) = (   0.3645833   0.4331087  -0.1059398), wk =   0.0034722
        k(  431) = (   0.3645833   0.4532533  -0.1059398), wk =   0.0034722
        k(  432) = (   0.3645833   0.4733978  -0.1059398), wk =   0.0034722
        k(  433) = (   0.3854167   0.0100723  -0.1059398), wk =   0.0034722
        k(  434) = (   0.3854167   0.0302169  -0.1059398), wk =   0.0034722
        k(  435) = (   0.3854167   0.0503615  -0.1059398), wk =   0.0034722
        k(  436) = (   0.3854167   0.0705061  -0.1059398), wk =   0.0034722
        k(  437) = (   0.3854167   0.0906507  -0.1059398), wk =   0.0034722
        k(  438) = (   0.3854167   0.1107952  -0.1059398), wk =   0.0034722
        k(  439) = (   0.3854167   0.1309398  -0.1059398), wk =   0.0034722
        k(  440) = (   0.3854167   0.1510844  -0.1059398), wk =   0.0034722
        k(  441) = (   0.3854167   0.1712290  -0.1059398), wk =   0.0034722
        k(  442) = (   0.3854167   0.1913736  -0.1059398), wk =   0.0034722
        k(  443) = (   0.3854167   0.2115182  -0.1059398), wk =   0.0034722
        k(  444) = (   0.3854167   0.2316628  -0.1059398), wk =   0.0034722
        k(  445) = (   0.3854167   0.2518074  -0.1059398), wk =   0.0034722
        k(  446) = (   0.3854167   0.2719520  -0.1059398), wk =   0.0034722
        k(  447) = (   0.3854167   0.2920965  -0.1059398), wk =   0.0034722
        k(  448) = (   0.3854167   0.3122411  -0.1059398), wk =   0.0034722
        k(  449) = (   0.3854167   0.3323857  -0.1059398), wk =   0.0034722
        k(  450) = (   0.3854167   0.3525303  -0.1059398), wk =   0.0034722
        k(  451) = (   0.3854167   0.3726749  -0.1059398), wk =   0.0034722
        k(  452) = (   0.3854167   0.3928195  -0.1059398), wk =   0.0034722
        k(  453) = (   0.3854167   0.4129641  -0.1059398), wk =   0.0034722
        k(  454) = (   0.3854167   0.4331087  -0.1059398), wk =   0.0034722
        k(  455) = (   0.3854167   0.4532533  -0.1059398), wk =   0.0034722
        k(  456) = (   0.3854167   0.4733978  -0.1059398), wk =   0.0034722
        k(  457) = (   0.4062500   0.0100723  -0.1059398), wk =   0.0034722
        k(  458) = (   0.4062500   0.0302169  -0.1059398), wk =   0.0034722
        k(  459) = (   0.4062500   0.0503615  -0.1059398), wk =   0.0034722
        k(  460) = (   0.4062500   0.0705061  -0.1059398), wk =   0.0034722
        k(  461) = (   0.4062500   0.0906507  -0.1059398), wk =   0.0034722
        k(  462) = (   0.4062500   0.1107952  -0.1059398), wk =   0.0034722
        k(  463) = (   0.4062500   0.1309398  -0.1059398), wk =   0.0034722
        k(  464) = (   0.4062500   0.1510844  -0.1059398), wk =   0.0034722
        k(  465) = (   0.4062500   0.1712290  -0.1059398), wk =   0.0034722
        k(  466) = (   0.4062500   0.1913736  -0.1059398), wk =   0.0034722
        k(  467) = (   0.4062500   0.2115182  -0.1059398), wk =   0.0034722
        k(  468) = (   0.4062500   0.2316628  -0.1059398), wk =   0.0034722
        k(  469) = (   0.4062500   0.2518074  -0.1059398), wk =   0.0034722
        k(  470) = (   0.4062500   0.2719520  -0.1059398), wk =   0.0034722
        k(  471) = (   0.4062500   0.2920965  -0.1059398), wk =   0.0034722
        k(  472) = (   0.4062500   0.3122411  -0.1059398), wk =   0.0034722
        k(  473) = (   0.4062500   0.3323857  -0.1059398), wk =   0.0034722
        k(  474) = (   0.4062500   0.3525303  -0.1059398), wk =   0.0034722
        k(  475) = (   0.4062500   0.3726749  -0.1059398), wk =   0.0034722
        k(  476) = (   0.4062500   0.3928195  -0.1059398), wk =   0.0034722
        k(  477) = (   0.4062500   0.4129641  -0.1059398), wk =   0.0034722
        k(  478) = (   0.4062500   0.4331087  -0.1059398), wk =   0.0034722
        k(  479) = (   0.4062500   0.4532533  -0.1059398), wk =   0.0034722
        k(  480) = (   0.4062500   0.4733978  -0.1059398), wk =   0.0034722
        k(  481) = (   0.4270833   0.0100723  -0.1059398), wk =   0.0034722
        k(  482) = (   0.4270833   0.0302169  -0.1059398), wk =   0.0034722
        k(  483) = (   0.4270833   0.0503615  -0.1059398), wk =   0.0034722
        k(  484) = (   0.4270833   0.0705061  -0.1059398), wk =   0.0034722
        k(  485) = (   0.4270833   0.0906507  -0.1059398), wk =   0.0034722
        k(  486) = (   0.4270833   0.1107952  -0.1059398), wk =   0.0034722
        k(  487) = (   0.4270833   0.1309398  -0.1059398), wk =   0.0034722
        k(  488) = (   0.4270833   0.1510844  -0.1059398), wk =   0.0034722
        k(  489) = (   0.4270833   0.1712290  -0.1059398), wk =   0.0034722
        k(  490) = (   0.4270833   0.1913736  -0.1059398), wk =   0.0034722
        k(  491) = (   0.4270833   0.2115182  -0.1059398), wk =   0.0034722
        k(  492) = (   0.4270833   0.2316628  -0.1059398), wk =   0.0034722
        k(  493) = (   0.4270833   0.2518074  -0.1059398), wk =   0.0034722
        k(  494) = (   0.4270833   0.2719520  -0.1059398), wk =   0.0034722
        k(  495) = (   0.4270833   0.2920965  -0.1059398), wk =   0.0034722
        k(  496) = (   0.4270833   0.3122411  -0.1059398), wk =   0.0034722
        k(  497) = (   0.4270833   0.3323857  -0.1059398), wk =   0.0034722
        k(  498) = (   0.4270833   0.3525303  -0.1059398), wk =   0.0034722
        k(  499) = (   0.4270833   0.3726749  -0.1059398), wk =   0.0034722
        k(  500) = (   0.4270833   0.3928195  -0.1059398), wk =   0.0034722
        k(  501) = (   0.4270833   0.4129641  -0.1059398), wk =   0.0034722
        k(  502) = (   0.4270833   0.4331087  -0.1059398), wk =   0.0034722
        k(  503) = (   0.4270833   0.4532533  -0.1059398), wk =   0.0034722
        k(  504) = (   0.4270833   0.4733978  -0.1059398), wk =   0.0034722
        k(  505) = (   0.4479167   0.0100723  -0.1059398), wk =   0.0034722
        k(  506) = (   0.4479167   0.0302169  -0.1059398), wk =   0.0034722
        k(  507) = (   0.4479167   0.0503615  -0.1059398), wk =   0.0034722
        k(  508) = (   0.4479167   0.0705061  -0.1059398), wk =   0.0034722
        k(  509) = (   0.4479167   0.0906507  -0.1059398), wk =   0.0034722
        k(  510) = (   0.4479167   0.1107952  -0.1059398), wk =   0.0034722
        k(  511) = (   0.4479167   0.1309398  -0.1059398), wk =   0.0034722
        k(  512) = (   0.4479167   0.1510844  -0.1059398), wk =   0.0034722
        k(  513) = (   0.4479167   0.1712290  -0.1059398), wk =   0.0034722
        k(  514) = (   0.4479167   0.1913736  -0.1059398), wk =   0.0034722
        k(  515) = (   0.4479167   0.2115182  -0.1059398), wk =   0.0034722
        k(  516) = (   0.4479167   0.2316628  -0.1059398), wk =   0.0034722
        k(  517) = (   0.4479167   0.2518074  -0.1059398), wk =   0.0034722
        k(  518) = (   0.4479167   0.2719520  -0.1059398), wk =   0.0034722
        k(  519) = (   0.4479167   0.2920965  -0.1059398), wk =   0.0034722
        k(  520) = (   0.4479167   0.3122411  -0.1059398), wk =   0.0034722
        k(  521) = (   0.4479167   0.3323857  -0.1059398), wk =   0.0034722
        k(  522) = (   0.4479167   0.3525303  -0.1059398), wk =   0.0034722
        k(  523) = (   0.4479167   0.3726749  -0.1059398), wk =   0.0034722
        k(  524) = (   0.4479167   0.3928195  -0.1059398), wk =   0.0034722
        k(  525) = (   0.4479167   0.4129641  -0.1059398), wk =   0.0034722
        k(  526) = (   0.4479167   0.4331087  -0.1059398), wk =   0.0034722
        k(  527) = (   0.4479167   0.4532533  -0.1059398), wk =   0.0034722
        k(  528) = (   0.4479167   0.4733978  -0.1059398), wk =   0.0034722
        k(  529) = (   0.4687500   0.0100723  -0.1059398), wk =   0.0034722
        k(  530) = (   0.4687500   0.0302169  -0.1059398), wk =   0.0034722
        k(  531) = (   0.4687500   0.0503615  -0.1059398), wk =   0.0034722
        k(  532) = (   0.4687500   0.0705061  -0.1059398), wk =   0.0034722
        k(  533) = (   0.4687500   0.0906507  -0.1059398), wk =   0.0034722
        k(  534) = (   0.4687500   0.1107952  -0.1059398), wk =   0.0034722
        k(  535) = (   0.4687500   0.1309398  -0.1059398), wk =   0.0034722
        k(  536) = (   0.4687500   0.1510844  -0.1059398), wk =   0.0034722
        k(  537) = (   0.4687500   0.1712290  -0.1059398), wk =   0.0034722
        k(  538) = (   0.4687500   0.1913736  -0.1059398), wk =   0.0034722
        k(  539) = (   0.4687500   0.2115182  -0.1059398), wk =   0.0034722
        k(  540) = (   0.4687500   0.2316628  -0.1059398), wk =   0.0034722
        k(  541) = (   0.4687500   0.2518074  -0.1059398), wk =   0.0034722
        k(  542) = (   0.4687500   0.2719520  -0.1059398), wk =   0.0034722
        k(  543) = (   0.4687500   0.2920965  -0.1059398), wk =   0.0034722
        k(  544) = (   0.4687500   0.3122411  -0.1059398), wk =   0.0034722
        k(  545) = (   0.4687500   0.3323857  -0.1059398), wk =   0.0034722
        k(  546) = (   0.4687500   0.3525303  -0.1059398), wk =   0.0034722
        k(  547) = (   0.4687500   0.3726749  -0.1059398), wk =   0.0034722
        k(  548) = (   0.4687500   0.3928195  -0.1059398), wk =   0.0034722
        k(  549) = (   0.4687500   0.4129641  -0.1059398), wk =   0.0034722
        k(  550) = (   0.4687500   0.4331087  -0.1059398), wk =   0.0034722
        k(  551) = (   0.4687500   0.4532533  -0.1059398), wk =   0.0034722
        k(  552) = (   0.4687500   0.4733978  -0.1059398), wk =   0.0034722
        k(  553) = (   0.4895833   0.0100723  -0.1059398), wk =   0.0034722
        k(  554) = (   0.4895833   0.0302169  -0.1059398), wk =   0.0034722
        k(  555) = (   0.4895833   0.0503615  -0.1059398), wk =   0.0034722
        k(  556) = (   0.4895833   0.0705061  -0.1059398), wk =   0.0034722
        k(  557) = (   0.4895833   0.0906507  -0.1059398), wk =   0.0034722
        k(  558) = (   0.4895833   0.1107952  -0.1059398), wk =   0.0034722
        k(  559) = (   0.4895833   0.1309398  -0.1059398), wk =   0.0034722
        k(  560) = (   0.4895833   0.1510844  -0.1059398), wk =   0.0034722
        k(  561) = (   0.4895833   0.1712290  -0.1059398), wk =   0.0034722
        k(  562) = (   0.4895833   0.1913736  -0.1059398), wk =   0.0034722
        k(  563) = (   0.4895833   0.2115182  -0.1059398), wk =   0.0034722
        k(  564) = (   0.4895833   0.2316628  -0.1059398), wk =   0.0034722
        k(  565) = (   0.4895833   0.2518074  -0.1059398), wk =   0.0034722
        k(  566) = (   0.4895833   0.2719520  -0.1059398), wk =   0.0034722
        k(  567) = (   0.4895833   0.2920965  -0.1059398), wk =   0.0034722
        k(  568) = (   0.4895833   0.3122411  -0.1059398), wk =   0.0034722
        k(  569) = (   0.4895833   0.3323857  -0.1059398), wk =   0.0034722
        k(  570) = (   0.4895833   0.3525303  -0.1059398), wk =   0.0034722
        k(  571) = (   0.4895833   0.3726749  -0.1059398), wk =   0.0034722
        k(  572) = (   0.4895833   0.3928195  -0.1059398), wk =   0.0034722
        k(  573) = (   0.4895833   0.4129641  -0.1059398), wk =   0.0034722
        k(  574) = (   0.4895833   0.4331087  -0.1059398), wk =   0.0034722
        k(  575) = (   0.4895833   0.4532533  -0.1059398), wk =   0.0034722
        k(  576) = (   0.4895833   0.4733978  -0.1059398), wk =   0.0034722

                       cryst. coord.
        k(    1) = (   0.0104167   0.0104167  -0.5000000), wk =   0.0034722
        k(    2) = (   0.0104167   0.0312500  -0.5000000), wk =   0.0034722
        k(    3) = (   0.0104167   0.0520833  -0.5000000), wk =   0.0034722
        k(    4) = (   0.0104167   0.0729167  -0.5000000), wk =   0.0034722
        k(    5) = (   0.0104167   0.0937500  -0.5000000), wk =   0.0034722
        k(    6) = (   0.0104167   0.1145833  -0.5000000), wk =   0.0034722
        k(    7) = (   0.0104167   0.1354167  -0.5000000), wk =   0.0034722
        k(    8) = (   0.0104167   0.1562500  -0.5000000), wk =   0.0034722
        k(    9) = (   0.0104167   0.1770833  -0.5000000), wk =   0.0034722
        k(   10) = (   0.0104167   0.1979167  -0.5000000), wk =   0.0034722
        k(   11) = (   0.0104167   0.2187500  -0.5000000), wk =   0.0034722
        k(   12) = (   0.0104167   0.2395833  -0.5000000), wk =   0.0034722
        k(   13) = (   0.0104167   0.2604167  -0.5000000), wk =   0.0034722
        k(   14) = (   0.0104167   0.2812500  -0.5000000), wk =   0.0034722
        k(   15) = (   0.0104167   0.3020833  -0.5000000), wk =   0.0034722
        k(   16) = (   0.0104167   0.3229167  -0.5000000), wk =   0.0034722
        k(   17) = (   0.0104167   0.3437500  -0.5000000), wk =   0.0034722
        k(   18) = (   0.0104167   0.3645833  -0.5000000), wk =   0.0034722
        k(   19) = (   0.0104167   0.3854167  -0.5000000), wk =   0.0034722
        k(   20) = (   0.0104167   0.4062500  -0.5000000), wk =   0.0034722
        k(   21) = (   0.0104167   0.4270833  -0.5000000), wk =   0.0034722
        k(   22) = (   0.0104167   0.4479167  -0.5000000), wk =   0.0034722
        k(   23) = (   0.0104167   0.4687500  -0.5000000), wk =   0.0034722
        k(   24) = (   0.0104167   0.4895833  -0.5000000), wk =   0.0034722
        k(   25) = (   0.0312500   0.0104167  -0.5000000), wk =   0.0034722
        k(   26) = (   0.0312500   0.0312500  -0.5000000), wk =   0.0034722
        k(   27) = (   0.0312500   0.0520833  -0.5000000), wk =   0.0034722
        k(   28) = (   0.0312500   0.0729167  -0.5000000), wk =   0.0034722
        k(   29) = (   0.0312500   0.0937500  -0.5000000), wk =   0.0034722
        k(   30) = (   0.0312500   0.1145833  -0.5000000), wk =   0.0034722
        k(   31) = (   0.0312500   0.1354167  -0.5000000), wk =   0.0034722
        k(   32) = (   0.0312500   0.1562500  -0.5000000), wk =   0.0034722
        k(   33) = (   0.0312500   0.1770833  -0.5000000), wk =   0.0034722
        k(   34) = (   0.0312500   0.1979167  -0.5000000), wk =   0.0034722
        k(   35) = (   0.0312500   0.2187500  -0.5000000), wk =   0.0034722
        k(   36) = (   0.0312500   0.2395833  -0.5000000), wk =   0.0034722
        k(   37) = (   0.0312500   0.2604167  -0.5000000), wk =   0.0034722
        k(   38) = (   0.0312500   0.2812500  -0.5000000), wk =   0.0034722
        k(   39) = (   0.0312500   0.3020833  -0.5000000), wk =   0.0034722
        k(   40) = (   0.0312500   0.3229167  -0.5000000), wk =   0.0034722
        k(   41) = (   0.0312500   0.3437500  -0.5000000), wk =   0.0034722
        k(   42) = (   0.0312500   0.3645833  -0.5000000), wk =   0.0034722
        k(   43) = (   0.0312500   0.3854167  -0.5000000), wk =   0.0034722
        k(   44) = (   0.0312500   0.4062500  -0.5000000), wk =   0.0034722
        k(   45) = (   0.0312500   0.4270833  -0.5000000), wk =   0.0034722
        k(   46) = (   0.0312500   0.4479167  -0.5000000), wk =   0.0034722
        k(   47) = (   0.0312500   0.4687500  -0.5000000), wk =   0.0034722
        k(   48) = (   0.0312500   0.4895833  -0.5000000), wk =   0.0034722
        k(   49) = (   0.0520833   0.0104167  -0.5000000), wk =   0.0034722
        k(   50) = (   0.0520833   0.0312500  -0.5000000), wk =   0.0034722
        k(   51) = (   0.0520833   0.0520833  -0.5000000), wk =   0.0034722
        k(   52) = (   0.0520833   0.0729167  -0.5000000), wk =   0.0034722
        k(   53) = (   0.0520833   0.0937500  -0.5000000), wk =   0.0034722
        k(   54) = (   0.0520833   0.1145833  -0.5000000), wk =   0.0034722
        k(   55) = (   0.0520833   0.1354167  -0.5000000), wk =   0.0034722
        k(   56) = (   0.0520833   0.1562500  -0.5000000), wk =   0.0034722
        k(   57) = (   0.0520833   0.1770833  -0.5000000), wk =   0.0034722
        k(   58) = (   0.0520833   0.1979167  -0.5000000), wk =   0.0034722
        k(   59) = (   0.0520833   0.2187500  -0.5000000), wk =   0.0034722
        k(   60) = (   0.0520833   0.2395833  -0.5000000), wk =   0.0034722
        k(   61) = (   0.0520833   0.2604167  -0.5000000), wk =   0.0034722
        k(   62) = (   0.0520833   0.2812500  -0.5000000), wk =   0.0034722
        k(   63) = (   0.0520833   0.3020833  -0.5000000), wk =   0.0034722
        k(   64) = (   0.0520833   0.3229167  -0.5000000), wk =   0.0034722
        k(   65) = (   0.0520833   0.3437500  -0.5000000), wk =   0.0034722
        k(   66) = (   0.0520833   0.3645833  -0.5000000), wk =   0.0034722
        k(   67) = (   0.0520833   0.3854167  -0.5000000), wk =   0.0034722
        k(   68) = (   0.0520833   0.4062500  -0.5000000), wk =   0.0034722
        k(   69) = (   0.0520833   0.4270833  -0.5000000), wk =   0.0034722
        k(   70) = (   0.0520833   0.4479167  -0.5000000), wk =   0.0034722
        k(   71) = (   0.0520833   0.4687500  -0.5000000), wk =   0.0034722
        k(   72) = (   0.0520833   0.4895833  -0.5000000), wk =   0.0034722
        k(   73) = (   0.0729167   0.0104167  -0.5000000), wk =   0.0034722
        k(   74) = (   0.0729167   0.0312500  -0.5000000), wk =   0.0034722
        k(   75) = (   0.0729167   0.0520833  -0.5000000), wk =   0.0034722
        k(   76) = (   0.0729167   0.0729167  -0.5000000), wk =   0.0034722
        k(   77) = (   0.0729167   0.0937500  -0.5000000), wk =   0.0034722
        k(   78) = (   0.0729167   0.1145833  -0.5000000), wk =   0.0034722
        k(   79) = (   0.0729167   0.1354167  -0.5000000), wk =   0.0034722
        k(   80) = (   0.0729167   0.1562500  -0.5000000), wk =   0.0034722
        k(   81) = (   0.0729167   0.1770833  -0.5000000), wk =   0.0034722
        k(   82) = (   0.0729167   0.1979167  -0.5000000), wk =   0.0034722
        k(   83) = (   0.0729167   0.2187500  -0.5000000), wk =   0.0034722
        k(   84) = (   0.0729167   0.2395833  -0.5000000), wk =   0.0034722
        k(   85) = (   0.0729167   0.2604167  -0.5000000), wk =   0.0034722
        k(   86) = (   0.0729167   0.2812500  -0.5000000), wk =   0.0034722
        k(   87) = (   0.0729167   0.3020833  -0.5000000), wk =   0.0034722
        k(   88) = (   0.0729167   0.3229167  -0.5000000), wk =   0.0034722
        k(   89) = (   0.0729167   0.3437500  -0.5000000), wk =   0.0034722
        k(   90) = (   0.0729167   0.3645833  -0.5000000), wk =   0.0034722
        k(   91) = (   0.0729167   0.3854167  -0.5000000), wk =   0.0034722
        k(   92) = (   0.0729167   0.4062500  -0.5000000), wk =   0.0034722
        k(   93) = (   0.0729167   0.4270833  -0.5000000), wk =   0.0034722
        k(   94) = (   0.0729167   0.4479167  -0.5000000), wk =   0.0034722
        k(   95) = (   0.0729167   0.4687500  -0.5000000), wk =   0.0034722
        k(   96) = (   0.0729167   0.4895833  -0.5000000), wk =   0.0034722
        k(   97) = (   0.0937500   0.0104167  -0.5000000), wk =   0.0034722
        k(   98) = (   0.0937500   0.0312500  -0.5000000), wk =   0.0034722
        k(   99) = (   0.0937500   0.0520833  -0.5000000), wk =   0.0034722
        k(  100) = (   0.0937500   0.0729167  -0.5000000), wk =   0.0034722
        k(  101) = (   0.0937500   0.0937500  -0.5000000), wk =   0.0034722
        k(  102) = (   0.0937500   0.1145833  -0.5000000), wk =   0.0034722
        k(  103) = (   0.0937500   0.1354167  -0.5000000), wk =   0.0034722
        k(  104) = (   0.0937500   0.1562500  -0.5000000), wk =   0.0034722
        k(  105) = (   0.0937500   0.1770833  -0.5000000), wk =   0.0034722
        k(  106) = (   0.0937500   0.1979167  -0.5000000), wk =   0.0034722
        k(  107) = (   0.0937500   0.2187500  -0.5000000), wk =   0.0034722
        k(  108) = (   0.0937500   0.2395833  -0.5000000), wk =   0.0034722
        k(  109) = (   0.0937500   0.2604167  -0.5000000), wk =   0.0034722
        k(  110) = (   0.0937500   0.2812500  -0.5000000), wk =   0.0034722
        k(  111) = (   0.0937500   0.3020833  -0.5000000), wk =   0.0034722
        k(  112) = (   0.0937500   0.3229167  -0.5000000), wk =   0.0034722
        k(  113) = (   0.0937500   0.3437500  -0.5000000), wk =   0.0034722
        k(  114) = (   0.0937500   0.3645833  -0.5000000), wk =   0.0034722
        k(  115) = (   0.0937500   0.3854167  -0.5000000), wk =   0.0034722
        k(  116) = (   0.0937500   0.4062500  -0.5000000), wk =   0.0034722
        k(  117) = (   0.0937500   0.4270833  -0.5000000), wk =   0.0034722
        k(  118) = (   0.0937500   0.4479167  -0.5000000), wk =   0.0034722
        k(  119) = (   0.0937500   0.4687500  -0.5000000), wk =   0.0034722
        k(  120) = (   0.0937500   0.4895833  -0.5000000), wk =   0.0034722
        k(  121) = (   0.1145833   0.0104167  -0.5000000), wk =   0.0034722
        k(  122) = (   0.1145833   0.0312500  -0.5000000), wk =   0.0034722
        k(  123) = (   0.1145833   0.0520833  -0.5000000), wk =   0.0034722
        k(  124) = (   0.1145833   0.0729167  -0.5000000), wk =   0.0034722
        k(  125) = (   0.1145833   0.0937500  -0.5000000), wk =   0.0034722
        k(  126) = (   0.1145833   0.1145833  -0.5000000), wk =   0.0034722
        k(  127) = (   0.1145833   0.1354167  -0.5000000), wk =   0.0034722
        k(  128) = (   0.1145833   0.1562500  -0.5000000), wk =   0.0034722
        k(  129) = (   0.1145833   0.1770833  -0.5000000), wk =   0.0034722
        k(  130) = (   0.1145833   0.1979167  -0.5000000), wk =   0.0034722
        k(  131) = (   0.1145833   0.2187500  -0.5000000), wk =   0.0034722
        k(  132) = (   0.1145833   0.2395833  -0.5000000), wk =   0.0034722
        k(  133) = (   0.1145833   0.2604167  -0.5000000), wk =   0.0034722
        k(  134) = (   0.1145833   0.2812500  -0.5000000), wk =   0.0034722
        k(  135) = (   0.1145833   0.3020833  -0.5000000), wk =   0.0034722
        k(  136) = (   0.1145833   0.3229167  -0.5000000), wk =   0.0034722
        k(  137) = (   0.1145833   0.3437500  -0.5000000), wk =   0.0034722
        k(  138) = (   0.1145833   0.3645833  -0.5000000), wk =   0.0034722
        k(  139) = (   0.1145833   0.3854167  -0.5000000), wk =   0.0034722
        k(  140) = (   0.1145833   0.4062500  -0.5000000), wk =   0.0034722
        k(  141) = (   0.1145833   0.4270833  -0.5000000), wk =   0.0034722
        k(  142) = (   0.1145833   0.4479167  -0.5000000), wk =   0.0034722
        k(  143) = (   0.1145833   0.4687500  -0.5000000), wk =   0.0034722
        k(  144) = (   0.1145833   0.4895833  -0.5000000), wk =   0.0034722
        k(  145) = (   0.1354167   0.0104167  -0.5000000), wk =   0.0034722
        k(  146) = (   0.1354167   0.0312500  -0.5000000), wk =   0.0034722
        k(  147) = (   0.1354167   0.0520833  -0.5000000), wk =   0.0034722
        k(  148) = (   0.1354167   0.0729167  -0.5000000), wk =   0.0034722
        k(  149) = (   0.1354167   0.0937500  -0.5000000), wk =   0.0034722
        k(  150) = (   0.1354167   0.1145833  -0.5000000), wk =   0.0034722
        k(  151) = (   0.1354167   0.1354167  -0.5000000), wk =   0.0034722
        k(  152) = (   0.1354167   0.1562500  -0.5000000), wk =   0.0034722
        k(  153) = (   0.1354167   0.1770833  -0.5000000), wk =   0.0034722
        k(  154) = (   0.1354167   0.1979167  -0.5000000), wk =   0.0034722
        k(  155) = (   0.1354167   0.2187500  -0.5000000), wk =   0.0034722
        k(  156) = (   0.1354167   0.2395833  -0.5000000), wk =   0.0034722
        k(  157) = (   0.1354167   0.2604167  -0.5000000), wk =   0.0034722
        k(  158) = (   0.1354167   0.2812500  -0.5000000), wk =   0.0034722
        k(  159) = (   0.1354167   0.3020833  -0.5000000), wk =   0.0034722
        k(  160) = (   0.1354167   0.3229167  -0.5000000), wk =   0.0034722
        k(  161) = (   0.1354167   0.3437500  -0.5000000), wk =   0.0034722
        k(  162) = (   0.1354167   0.3645833  -0.5000000), wk =   0.0034722
        k(  163) = (   0.1354167   0.3854167  -0.5000000), wk =   0.0034722
        k(  164) = (   0.1354167   0.4062500  -0.5000000), wk =   0.0034722
        k(  165) = (   0.1354167   0.4270833  -0.5000000), wk =   0.0034722
        k(  166) = (   0.1354167   0.4479167  -0.5000000), wk =   0.0034722
        k(  167) = (   0.1354167   0.4687500  -0.5000000), wk =   0.0034722
        k(  168) = (   0.1354167   0.4895833  -0.5000000), wk =   0.0034722
        k(  169) = (   0.1562500   0.0104167  -0.5000000), wk =   0.0034722
        k(  170) = (   0.1562500   0.0312500  -0.5000000), wk =   0.0034722
        k(  171) = (   0.1562500   0.0520833  -0.5000000), wk =   0.0034722
        k(  172) = (   0.1562500   0.0729167  -0.5000000), wk =   0.0034722
        k(  173) = (   0.1562500   0.0937500  -0.5000000), wk =   0.0034722
        k(  174) = (   0.1562500   0.1145833  -0.5000000), wk =   0.0034722
        k(  175) = (   0.1562500   0.1354167  -0.5000000), wk =   0.0034722
        k(  176) = (   0.1562500   0.1562500  -0.5000000), wk =   0.0034722
        k(  177) = (   0.1562500   0.1770833  -0.5000000), wk =   0.0034722
        k(  178) = (   0.1562500   0.1979167  -0.5000000), wk =   0.0034722
        k(  179) = (   0.1562500   0.2187500  -0.5000000), wk =   0.0034722
        k(  180) = (   0.1562500   0.2395833  -0.5000000), wk =   0.0034722
        k(  181) = (   0.1562500   0.2604167  -0.5000000), wk =   0.0034722
        k(  182) = (   0.1562500   0.2812500  -0.5000000), wk =   0.0034722
        k(  183) = (   0.1562500   0.3020833  -0.5000000), wk =   0.0034722
        k(  184) = (   0.1562500   0.3229167  -0.5000000), wk =   0.0034722
        k(  185) = (   0.1562500   0.3437500  -0.5000000), wk =   0.0034722
        k(  186) = (   0.1562500   0.3645833  -0.5000000), wk =   0.0034722
        k(  187) = (   0.1562500   0.3854167  -0.5000000), wk =   0.0034722
        k(  188) = (   0.1562500   0.4062500  -0.5000000), wk =   0.0034722
        k(  189) = (   0.1562500   0.4270833  -0.5000000), wk =   0.0034722
        k(  190) = (   0.1562500   0.4479167  -0.5000000), wk =   0.0034722
        k(  191) = (   0.1562500   0.4687500  -0.5000000), wk =   0.0034722
        k(  192) = (   0.1562500   0.4895833  -0.5000000), wk =   0.0034722
        k(  193) = (   0.1770833   0.0104167  -0.5000000), wk =   0.0034722
        k(  194) = (   0.1770833   0.0312500  -0.5000000), wk =   0.0034722
        k(  195) = (   0.1770833   0.0520833  -0.5000000), wk =   0.0034722
        k(  196) = (   0.1770833   0.0729167  -0.5000000), wk =   0.0034722
        k(  197) = (   0.1770833   0.0937500  -0.5000000), wk =   0.0034722
        k(  198) = (   0.1770833   0.1145833  -0.5000000), wk =   0.0034722
        k(  199) = (   0.1770833   0.1354167  -0.5000000), wk =   0.0034722
        k(  200) = (   0.1770833   0.1562500  -0.5000000), wk =   0.0034722
        k(  201) = (   0.1770833   0.1770833  -0.5000000), wk =   0.0034722
        k(  202) = (   0.1770833   0.1979167  -0.5000000), wk =   0.0034722
        k(  203) = (   0.1770833   0.2187500  -0.5000000), wk =   0.0034722
        k(  204) = (   0.1770833   0.2395833  -0.5000000), wk =   0.0034722
        k(  205) = (   0.1770833   0.2604167  -0.5000000), wk =   0.0034722
        k(  206) = (   0.1770833   0.2812500  -0.5000000), wk =   0.0034722
        k(  207) = (   0.1770833   0.3020833  -0.5000000), wk =   0.0034722
        k(  208) = (   0.1770833   0.3229167  -0.5000000), wk =   0.0034722
        k(  209) = (   0.1770833   0.3437500  -0.5000000), wk =   0.0034722
        k(  210) = (   0.1770833   0.3645833  -0.5000000), wk =   0.0034722
        k(  211) = (   0.1770833   0.3854167  -0.5000000), wk =   0.0034722
        k(  212) = (   0.1770833   0.4062500  -0.5000000), wk =   0.0034722
        k(  213) = (   0.1770833   0.4270833  -0.5000000), wk =   0.0034722
        k(  214) = (   0.1770833   0.4479167  -0.5000000), wk =   0.0034722
        k(  215) = (   0.1770833   0.4687500  -0.5000000), wk =   0.0034722
        k(  216) = (   0.1770833   0.4895833  -0.5000000), wk =   0.0034722
        k(  217) = (   0.1979167   0.0104167  -0.5000000), wk =   0.0034722
        k(  218) = (   0.1979167   0.0312500  -0.5000000), wk =   0.0034722
        k(  219) = (   0.1979167   0.0520833  -0.5000000), wk =   0.0034722
        k(  220) = (   0.1979167   0.0729167  -0.5000000), wk =   0.0034722
        k(  221) = (   0.1979167   0.0937500  -0.5000000), wk =   0.0034722
        k(  222) = (   0.1979167   0.1145833  -0.5000000), wk =   0.0034722
        k(  223) = (   0.1979167   0.1354167  -0.5000000), wk =   0.0034722
        k(  224) = (   0.1979167   0.1562500  -0.5000000), wk =   0.0034722
        k(  225) = (   0.1979167   0.1770833  -0.5000000), wk =   0.0034722
        k(  226) = (   0.1979167   0.1979167  -0.5000000), wk =   0.0034722
        k(  227) = (   0.1979167   0.2187500  -0.5000000), wk =   0.0034722
        k(  228) = (   0.1979167   0.2395833  -0.5000000), wk =   0.0034722
        k(  229) = (   0.1979167   0.2604167  -0.5000000), wk =   0.0034722
        k(  230) = (   0.1979167   0.2812500  -0.5000000), wk =   0.0034722
        k(  231) = (   0.1979167   0.3020833  -0.5000000), wk =   0.0034722
        k(  232) = (   0.1979167   0.3229167  -0.5000000), wk =   0.0034722
        k(  233) = (   0.1979167   0.3437500  -0.5000000), wk =   0.0034722
        k(  234) = (   0.1979167   0.3645833  -0.5000000), wk =   0.0034722
        k(  235) = (   0.1979167   0.3854167  -0.5000000), wk =   0.0034722
        k(  236) = (   0.1979167   0.4062500  -0.5000000), wk =   0.0034722
        k(  237) = (   0.1979167   0.4270833  -0.5000000), wk =   0.0034722
        k(  238) = (   0.1979167   0.4479167  -0.5000000), wk =   0.0034722
        k(  239) = (   0.1979167   0.4687500  -0.5000000), wk =   0.0034722
        k(  240) = (   0.1979167   0.4895833  -0.5000000), wk =   0.0034722
        k(  241) = (   0.2187500   0.0104167  -0.5000000), wk =   0.0034722
        k(  242) = (   0.2187500   0.0312500  -0.5000000), wk =   0.0034722
        k(  243) = (   0.2187500   0.0520833  -0.5000000), wk =   0.0034722
        k(  244) = (   0.2187500   0.0729167  -0.5000000), wk =   0.0034722
        k(  245) = (   0.2187500   0.0937500  -0.5000000), wk =   0.0034722
        k(  246) = (   0.2187500   0.1145833  -0.5000000), wk =   0.0034722
        k(  247) = (   0.2187500   0.1354167  -0.5000000), wk =   0.0034722
        k(  248) = (   0.2187500   0.1562500  -0.5000000), wk =   0.0034722
        k(  249) = (   0.2187500   0.1770833  -0.5000000), wk =   0.0034722
        k(  250) = (   0.2187500   0.1979167  -0.5000000), wk =   0.0034722
        k(  251) = (   0.2187500   0.2187500  -0.5000000), wk =   0.0034722
        k(  252) = (   0.2187500   0.2395833  -0.5000000), wk =   0.0034722
        k(  253) = (   0.2187500   0.2604167  -0.5000000), wk =   0.0034722
        k(  254) = (   0.2187500   0.2812500  -0.5000000), wk =   0.0034722
        k(  255) = (   0.2187500   0.3020833  -0.5000000), wk =   0.0034722
        k(  256) = (   0.2187500   0.3229167  -0.5000000), wk =   0.0034722
        k(  257) = (   0.2187500   0.3437500  -0.5000000), wk =   0.0034722
        k(  258) = (   0.2187500   0.3645833  -0.5000000), wk =   0.0034722
        k(  259) = (   0.2187500   0.3854167  -0.5000000), wk =   0.0034722
        k(  260) = (   0.2187500   0.4062500  -0.5000000), wk =   0.0034722
        k(  261) = (   0.2187500   0.4270833  -0.5000000), wk =   0.0034722
        k(  262) = (   0.2187500   0.4479167  -0.5000000), wk =   0.0034722
        k(  263) = (   0.2187500   0.4687500  -0.5000000), wk =   0.0034722
        k(  264) = (   0.2187500   0.4895833  -0.5000000), wk =   0.0034722
        k(  265) = (   0.2395833   0.0104167  -0.5000000), wk =   0.0034722
        k(  266) = (   0.2395833   0.0312500  -0.5000000), wk =   0.0034722
        k(  267) = (   0.2395833   0.0520833  -0.5000000), wk =   0.0034722
        k(  268) = (   0.2395833   0.0729167  -0.5000000), wk =   0.0034722
        k(  269) = (   0.2395833   0.0937500  -0.5000000), wk =   0.0034722
        k(  270) = (   0.2395833   0.1145833  -0.5000000), wk =   0.0034722
        k(  271) = (   0.2395833   0.1354167  -0.5000000), wk =   0.0034722
        k(  272) = (   0.2395833   0.1562500  -0.5000000), wk =   0.0034722
        k(  273) = (   0.2395833   0.1770833  -0.5000000), wk =   0.0034722
        k(  274) = (   0.2395833   0.1979167  -0.5000000), wk =   0.0034722
        k(  275) = (   0.2395833   0.2187500  -0.5000000), wk =   0.0034722
        k(  276) = (   0.2395833   0.2395833  -0.5000000), wk =   0.0034722
        k(  277) = (   0.2395833   0.2604167  -0.5000000), wk =   0.0034722
        k(  278) = (   0.2395833   0.2812500  -0.5000000), wk =   0.0034722
        k(  279) = (   0.2395833   0.3020833  -0.5000000), wk =   0.0034722
        k(  280) = (   0.2395833   0.3229167  -0.5000000), wk =   0.0034722
        k(  281) = (   0.2395833   0.3437500  -0.5000000), wk =   0.0034722
        k(  282) = (   0.2395833   0.3645833  -0.5000000), wk =   0.0034722
        k(  283) = (   0.2395833   0.3854167  -0.5000000), wk =   0.0034722
        k(  284) = (   0.2395833   0.4062500  -0.5000000), wk =   0.0034722
        k(  285) = (   0.2395833   0.4270833  -0.5000000), wk =   0.0034722
        k(  286) = (   0.2395833   0.4479167  -0.5000000), wk =   0.0034722
        k(  287) = (   0.2395833   0.4687500  -0.5000000), wk =   0.0034722
        k(  288) = (   0.2395833   0.4895833  -0.5000000), wk =   0.0034722
        k(  289) = (   0.2604167   0.0104167  -0.5000000), wk =   0.0034722
        k(  290) = (   0.2604167   0.0312500  -0.5000000), wk =   0.0034722
        k(  291) = (   0.2604167   0.0520833  -0.5000000), wk =   0.0034722
        k(  292) = (   0.2604167   0.0729167  -0.5000000), wk =   0.0034722
        k(  293) = (   0.2604167   0.0937500  -0.5000000), wk =   0.0034722
        k(  294) = (   0.2604167   0.1145833  -0.5000000), wk =   0.0034722
        k(  295) = (   0.2604167   0.1354167  -0.5000000), wk =   0.0034722
        k(  296) = (   0.2604167   0.1562500  -0.5000000), wk =   0.0034722
        k(  297) = (   0.2604167   0.1770833  -0.5000000), wk =   0.0034722
        k(  298) = (   0.2604167   0.1979167  -0.5000000), wk =   0.0034722
        k(  299) = (   0.2604167   0.2187500  -0.5000000), wk =   0.0034722
        k(  300) = (   0.2604167   0.2395833  -0.5000000), wk =   0.0034722
        k(  301) = (   0.2604167   0.2604167  -0.5000000), wk =   0.0034722
        k(  302) = (   0.2604167   0.2812500  -0.5000000), wk =   0.0034722
        k(  303) = (   0.2604167   0.3020833  -0.5000000), wk =   0.0034722
        k(  304) = (   0.2604167   0.3229167  -0.5000000), wk =   0.0034722
        k(  305) = (   0.2604167   0.3437500  -0.5000000), wk =   0.0034722
        k(  306) = (   0.2604167   0.3645833  -0.5000000), wk =   0.0034722
        k(  307) = (   0.2604167   0.3854167  -0.5000000), wk =   0.0034722
        k(  308) = (   0.2604167   0.4062500  -0.5000000), wk =   0.0034722
        k(  309) = (   0.2604167   0.4270833  -0.5000000), wk =   0.0034722
        k(  310) = (   0.2604167   0.4479167  -0.5000000), wk =   0.0034722
        k(  311) = (   0.2604167   0.4687500  -0.5000000), wk =   0.0034722
        k(  312) = (   0.2604167   0.4895833  -0.5000000), wk =   0.0034722
        k(  313) = (   0.2812500   0.0104167  -0.5000000), wk =   0.0034722
        k(  314) = (   0.2812500   0.0312500  -0.5000000), wk =   0.0034722
        k(  315) = (   0.2812500   0.0520833  -0.5000000), wk =   0.0034722
        k(  316) = (   0.2812500   0.0729167  -0.5000000), wk =   0.0034722
        k(  317) = (   0.2812500   0.0937500  -0.5000000), wk =   0.0034722
        k(  318) = (   0.2812500   0.1145833  -0.5000000), wk =   0.0034722
        k(  319) = (   0.2812500   0.1354167  -0.5000000), wk =   0.0034722
        k(  320) = (   0.2812500   0.1562500  -0.5000000), wk =   0.0034722
        k(  321) = (   0.2812500   0.1770833  -0.5000000), wk =   0.0034722
        k(  322) = (   0.2812500   0.1979167  -0.5000000), wk =   0.0034722
        k(  323) = (   0.2812500   0.2187500  -0.5000000), wk =   0.0034722
        k(  324) = (   0.2812500   0.2395833  -0.5000000), wk =   0.0034722
        k(  325) = (   0.2812500   0.2604167  -0.5000000), wk =   0.0034722
        k(  326) = (   0.2812500   0.2812500  -0.5000000), wk =   0.0034722
        k(  327) = (   0.2812500   0.3020833  -0.5000000), wk =   0.0034722
        k(  328) = (   0.2812500   0.3229167  -0.5000000), wk =   0.0034722
        k(  329) = (   0.2812500   0.3437500  -0.5000000), wk =   0.0034722
        k(  330) = (   0.2812500   0.3645833  -0.5000000), wk =   0.0034722
        k(  331) = (   0.2812500   0.3854167  -0.5000000), wk =   0.0034722
        k(  332) = (   0.2812500   0.4062500  -0.5000000), wk =   0.0034722
        k(  333) = (   0.2812500   0.4270833  -0.5000000), wk =   0.0034722
        k(  334) = (   0.2812500   0.4479167  -0.5000000), wk =   0.0034722
        k(  335) = (   0.2812500   0.4687500  -0.5000000), wk =   0.0034722
        k(  336) = (   0.2812500   0.4895833  -0.5000000), wk =   0.0034722
        k(  337) = (   0.3020833   0.0104167  -0.5000000), wk =   0.0034722
        k(  338) = (   0.3020833   0.0312500  -0.5000000), wk =   0.0034722
        k(  339) = (   0.3020833   0.0520833  -0.5000000), wk =   0.0034722
        k(  340) = (   0.3020833   0.0729167  -0.5000000), wk =   0.0034722
        k(  341) = (   0.3020833   0.0937500  -0.5000000), wk =   0.0034722
        k(  342) = (   0.3020833   0.1145833  -0.5000000), wk =   0.0034722
        k(  343) = (   0.3020833   0.1354167  -0.5000000), wk =   0.0034722
        k(  344) = (   0.3020833   0.1562500  -0.5000000), wk =   0.0034722
        k(  345) = (   0.3020833   0.1770833  -0.5000000), wk =   0.0034722
        k(  346) = (   0.3020833   0.1979167  -0.5000000), wk =   0.0034722
        k(  347) = (   0.3020833   0.2187500  -0.5000000), wk =   0.0034722
        k(  348) = (   0.3020833   0.2395833  -0.5000000), wk =   0.0034722
        k(  349) = (   0.3020833   0.2604167  -0.5000000), wk =   0.0034722
        k(  350) = (   0.3020833   0.2812500  -0.5000000), wk =   0.0034722
        k(  351) = (   0.3020833   0.3020833  -0.5000000), wk =   0.0034722
        k(  352) = (   0.3020833   0.3229167  -0.5000000), wk =   0.0034722
        k(  353) = (   0.3020833   0.3437500  -0.5000000), wk =   0.0034722
        k(  354) = (   0.3020833   0.3645833  -0.5000000), wk =   0.0034722
        k(  355) = (   0.3020833   0.3854167  -0.5000000), wk =   0.0034722
        k(  356) = (   0.3020833   0.4062500  -0.5000000), wk =   0.0034722
        k(  357) = (   0.3020833   0.4270833  -0.5000000), wk =   0.0034722
        k(  358) = (   0.3020833   0.4479167  -0.5000000), wk =   0.0034722
        k(  359) = (   0.3020833   0.4687500  -0.5000000), wk =   0.0034722
        k(  360) = (   0.3020833   0.4895833  -0.5000000), wk =   0.0034722
        k(  361) = (   0.3229167   0.0104167  -0.5000000), wk =   0.0034722
        k(  362) = (   0.3229167   0.0312500  -0.5000000), wk =   0.0034722
        k(  363) = (   0.3229167   0.0520833  -0.5000000), wk =   0.0034722
        k(  364) = (   0.3229167   0.0729167  -0.5000000), wk =   0.0034722
        k(  365) = (   0.3229167   0.0937500  -0.5000000), wk =   0.0034722
        k(  366) = (   0.3229167   0.1145833  -0.5000000), wk =   0.0034722
        k(  367) = (   0.3229167   0.1354167  -0.5000000), wk =   0.0034722
        k(  368) = (   0.3229167   0.1562500  -0.5000000), wk =   0.0034722
        k(  369) = (   0.3229167   0.1770833  -0.5000000), wk =   0.0034722
        k(  370) = (   0.3229167   0.1979167  -0.5000000), wk =   0.0034722
        k(  371) = (   0.3229167   0.2187500  -0.5000000), wk =   0.0034722
        k(  372) = (   0.3229167   0.2395833  -0.5000000), wk =   0.0034722
        k(  373) = (   0.3229167   0.2604167  -0.5000000), wk =   0.0034722
        k(  374) = (   0.3229167   0.2812500  -0.5000000), wk =   0.0034722
        k(  375) = (   0.3229167   0.3020833  -0.5000000), wk =   0.0034722
        k(  376) = (   0.3229167   0.3229167  -0.5000000), wk =   0.0034722
        k(  377) = (   0.3229167   0.3437500  -0.5000000), wk =   0.0034722
        k(  378) = (   0.3229167   0.3645833  -0.5000000), wk =   0.0034722
        k(  379) = (   0.3229167   0.3854167  -0.5000000), wk =   0.0034722
        k(  380) = (   0.3229167   0.4062500  -0.5000000), wk =   0.0034722
        k(  381) = (   0.3229167   0.4270833  -0.5000000), wk =   0.0034722
        k(  382) = (   0.3229167   0.4479167  -0.5000000), wk =   0.0034722
        k(  383) = (   0.3229167   0.4687500  -0.5000000), wk =   0.0034722
        k(  384) = (   0.3229167   0.4895833  -0.5000000), wk =   0.0034722
        k(  385) = (   0.3437500   0.0104167  -0.5000000), wk =   0.0034722
        k(  386) = (   0.3437500   0.0312500  -0.5000000), wk =   0.0034722
        k(  387) = (   0.3437500   0.0520833  -0.5000000), wk =   0.0034722
        k(  388) = (   0.3437500   0.0729167  -0.5000000), wk =   0.0034722
        k(  389) = (   0.3437500   0.0937500  -0.5000000), wk =   0.0034722
        k(  390) = (   0.3437500   0.1145833  -0.5000000), wk =   0.0034722
        k(  391) = (   0.3437500   0.1354167  -0.5000000), wk =   0.0034722
        k(  392) = (   0.3437500   0.1562500  -0.5000000), wk =   0.0034722
        k(  393) = (   0.3437500   0.1770833  -0.5000000), wk =   0.0034722
        k(  394) = (   0.3437500   0.1979167  -0.5000000), wk =   0.0034722
        k(  395) = (   0.3437500   0.2187500  -0.5000000), wk =   0.0034722
        k(  396) = (   0.3437500   0.2395833  -0.5000000), wk =   0.0034722
        k(  397) = (   0.3437500   0.2604167  -0.5000000), wk =   0.0034722
[...]
     9.8883  10.1501  10.2208  10.3782  10.5136  10.5318  11.0203  11.0331
    11.2523  11.3448  11.3955  11.4451

     occupation numbers 
     1.0000   1.0000   1.0000   1.0000   1.0000   1.0000   1.0000   1.0000
     1.0000   1.0000   1.0000   1.0000   1.0000   1.0000   1.0000   1.0000
     1.0000   1.0000   1.0000   1.0000   1.0000   1.0000   1.0000   1.0000
     1.0000   1.0000   1.0000   1.0000   1.0000   1.0000   0.0000   0.0000
     0.0000   0.0000   0.0000   0.0000   0.0000   0.0000   0.0000   0.0000
     0.0000   0.0000   0.0000   0.0000   0.0000   0.0000   0.0000   0.0000
     0.0000   0.0000   0.0000   0.0000   0.0000   0.0000   0.0000   0.0000
     0.0000   0.0000   0.0000   0.0000

          k = 0.4896 0.2317-0.1059 ( 14980 PWs)   bands (ev):

   -36.6536 -36.6536 -36.6534 -36.6534 -36.6385 -36.6384 -36.6300 -36.6299
   -36.6244 -36.6243 -24.6643 -24.6641 -24.6598 -24.6598 -24.6476 -24.6475
   -24.6388 -24.6387 -24.6329 -24.6327 -11.0545 -10.9942  -7.8741  -7.8129
    -3.6702  -3.5563  -2.6757  -2.5880  -1.6669  -1.5615   2.3522   2.4617
     2.9655   3.1079   3.9837   4.0422   5.6073   5.6506   6.5053   6.5071
     6.7645   6.7939   7.4279   7.5232   8.1766   8.3007   8.6565   8.6904
     9.9504  10.1930  10.2247  10.3508  10.4306  10.5021  10.9081  10.9653
    11.0973  11.2005  11.4860  11.5955

     occupation numbers 
     1.0000   1.0000   1.0000   1.0000   1.0000   1.0000   1.0000   1.0000
     1.0000   1.0000   1.0000   1.0000   1.0000   1.0000   1.0000   1.0000
     1.0000   1.0000   1.0000   1.0000   1.0000   1.0000   1.0000   1.0000
     1.0000   1.0000   1.0000   1.0000   1.0000   1.0000   0.0000   0.0000
     0.0000   0.0000   0.0000   0.0000   0.0000   0.0000   0.0000   0.0000
     0.0000   0.0000   0.0000   0.0000   0.0000   0.0000   0.0000   0.0000
     0.0000   0.0000   0.0000   0.0000   0.0000   0.0000   0.0000   0.0000
     0.0000   0.0000   0.0000   0.0000

          k = 0.4896 0.2518-0.1059 ( 14992 PWs)   bands (ev):

   -36.6536 -36.6536 -36.6535 -36.6534 -36.6384 -36.6383 -36.6300 -36.6299
   -36.6244 -36.6243 -24.6643 -24.6641 -24.6599 -24.6598 -24.6475 -24.6474
   -24.6388 -24.6387 -24.6328 -24.6327 -11.0284 -10.9712  -7.8323  -7.7743
    -3.8296  -3.7180  -2.7502  -2.6611  -1.7430  -1.6439   2.4132   2.5124
     3.2121   3.3590   4.1078   4.1323   5.6628   5.7294   6.5536   6.5599
     6.8164   6.8320   7.4519   7.5373   8.2470   8.3554   8.5997   8.6326
     9.9637  10.1679  10.1989  10.2789  10.3646  10.5191  10.7889  10.8833
    11.0007  11.0885  11.5679  11.7342

     occupation numbers 
     1.0000   1.0000   1.0000   1.0000   1.0000   1.0000   1.0000   1.0000
     1.0000   1.0000   1.0000   1.0000   1.0000   1.0000   1.0000   1.0000
     1.0000   1.0000   1.0000   1.0000   1.0000   1.0000   1.0000   1.0000
     1.0000   1.0000   1.0000   1.0000   1.0000   1.0000   0.0000   0.0000
     0.0000   0.0000   0.0000   0.0000   0.0000   0.0000   0.0000   0.0000
     0.0000   0.0000   0.0000   0.0000   0.0000   0.0000   0.0000   0.0000
     0.0000   0.0000   0.0000   0.0000   0.0000   0.0000   0.0000   0.0000
     0.0000   0.0000   0.0000   0.0000

          k = 0.4896 0.2720-0.1059 ( 14976 PWs)   bands (ev):

   -36.6537 -36.6536 -36.6535 -36.6534 -36.6383 -36.6382 -36.6300 -36.6299
   -36.6244 -36.6243 -24.6643 -24.6642 -24.6600 -24.6599 -24.6474 -24.6473
   -24.6389 -24.6388 -24.6328 -24.6327 -11.0019 -10.9481  -7.7893  -7.7347
    -3.9798  -3.8720  -2.8360  -2.7469  -1.7963  -1.7046   2.4615   2.5525
     3.4625   3.6071   4.1810   4.1905   5.7630   5.8532   6.6076   6.6133
     6.8723   6.8799   7.4727   7.5509   8.3217   8.3965   8.5709   8.6167
     9.8625  10.0258  10.1910  10.2170  10.3598  10.5318  10.7253  10.7537
    10.9569  11.0676  11.6110  11.7452

     occupation numbers 
     1.0000   1.0000   1.0000   1.0000   1.0000   1.0000   1.0000   1.0000
     1.0000   1.0000   1.0000   1.0000   1.0000   1.0000   1.0000   1.0000
     1.0000   1.0000   1.0000   1.0000   1.0000   1.0000   1.0000   1.0000
     1.0000   1.0000   1.0000   1.0000   1.0000   1.0000   0.0000   0.0000
     0.0000   0.0000   0.0000   0.0000   0.0000   0.0000   0.0000   0.0000
     0.0000   0.0000   0.0000   0.0000   0.0000   0.0000   0.0000   0.0000
     0.0000   0.0000   0.0000   0.0000   0.0000   0.0000   0.0000   0.0000
     0.0000   0.0000   0.0000   0.0000

          k = 0.4896 0.2921-0.1059 ( 14980 PWs)   bands (ev):

   -36.6537 -36.6537 -36.6535 -36.6534 -36.6383 -36.6382 -36.6300 -36.6299
   -36.6244 -36.6243 -24.6643 -24.6642 -24.6600 -24.6599 -24.6473 -24.6472
   -24.6389 -24.6388 -24.6328 -24.6327 -10.9755 -10.9255  -7.7457  -7.6950
    -4.1194  -4.0169  -2.9295  -2.8420  -1.8303  -1.7465   2.5026   2.5859
     3.6989   3.8309   4.2083   4.2521   5.9020   6.0099   6.6617   6.6626
     6.9151   6.9540   7.4928   7.5695   8.3979   8.4201   8.5711   8.6480
     9.6976   9.8490  10.0914  10.1507  10.3979  10.5458  10.6572  10.7149
    10.9490  11.0648  11.5711  11.6190

     occupation numbers 
     1.0000   1.0000   1.0000   1.0000   1.0000   1.0000   1.0000   1.0000
     1.0000   1.0000   1.0000   1.0000   1.0000   1.0000   1.0000   1.0000
     1.0000   1.0000   1.0000   1.0000   1.0000   1.0000   1.0000   1.0000
     1.0000   1.0000   1.0000   1.0000   1.0000   1.0000   0.0000   0.0000
     0.0000   0.0000   0.0000   0.0000   0.0000   0.0000   0.0000   0.0000
     0.0000   0.0000   0.0000   0.0000   0.0000   0.0000   0.0000   0.0000
     0.0000   0.0000   0.0000   0.0000   0.0000   0.0000   0.0000   0.0000
     0.0000   0.0000   0.0000   0.0000

          k = 0.4896 0.3122-0.1059 ( 14966 PWs)   bands (ev):

   -36.6537 -36.6537 -36.6535 -36.6534 -36.6382 -36.6381 -36.6300 -36.6299
   -36.6244 -36.6243 -24.6643 -24.6642 -24.6601 -24.6600 -24.6472 -24.6471
   -24.6390 -24.6389 -24.6327 -24.6326 -10.9495 -10.9036  -7.7022  -7.6557
    -4.2475  -4.1513  -3.0259  -2.9418  -1.8493  -1.7736   2.5386   2.6143
     3.8874   3.9866   4.2555   4.3429   6.0667   6.1841   6.7011   6.7086
     6.9660   7.0379   7.5175   7.5995   8.4411   8.4715   8.6000   8.7082
     9.5226   9.6675   9.9254  10.0340  10.4633  10.5484  10.6118  10.7059
    10.9825  11.0535  11.4493  11.4629

     occupation numbers 
     1.0000   1.0000   1.0000   1.0000   1.0000   1.0000   1.0000   1.0000
     1.0000   1.0000   1.0000   1.0000   1.0000   1.0000   1.0000   1.0000
     1.0000   1.0000   1.0000   1.0000   1.0000   1.0000   1.0000   1.0000
     1.0000   1.0000   1.0000   1.0000   1.0000   1.0000   0.0000   0.0000
     0.0000   0.0000   0.0000   0.0000   0.0000   0.0000   0.0000   0.0000
     0.0000   0.0000   0.0000   0.0000   0.0000   0.0000   0.0000   0.0000
     0.0000   0.0000   0.0000   0.0000   0.0000   0.0000   0.0000   0.0000
     0.0000   0.0000   0.0000   0.0000

          k = 0.4896 0.3324-0.1059 ( 14960 PWs)   bands (ev):

   -36.6537 -36.6537 -36.6535 -36.6534 -36.6382 -36.6381 -36.6300 -36.6299
   -36.6244 -36.6243 -24.6643 -24.6642 -24.6601 -24.6600 -24.6471 -24.6470
   -24.6390 -24.6389 -24.6327 -24.6326 -10.9245 -10.8830  -7.6597  -7.6178
    -4.3631  -4.2744  -3.1206  -3.0416  -1.8575  -1.7901   2.5702   2.6380
     3.9757   4.0425   4.3814   4.5023   6.2427   6.3608   6.7306   6.7364
     7.0334   7.1304   7.5531   7.6455   8.4717   8.5380   8.6529   8.7740
     9.3602   9.4928   9.7487   9.8774  10.5024  10.5032  10.5990  10.6963
    11.0350  11.0499  11.3049  11.3351

     occupation numbers 
     1.0000   1.0000   1.0000   1.0000   1.0000   1.0000   1.0000   1.0000
     1.0000   1.0000   1.0000   1.0000   1.0000   1.0000   1.0000   1.0000
     1.0000   1.0000   1.0000   1.0000   1.0000   1.0000   1.0000   1.0000
     1.0000   1.0000   1.0000   1.0000   1.0000   1.0000   0.0000   0.0000
     0.0000   0.0000   0.0000   0.0000   0.0000   0.0000   0.0000   0.0000
     0.0000   0.0000   0.0000   0.0000   0.0000   0.0000   0.0000   0.0000
     0.0000   0.0000   0.0000   0.0000   0.0000   0.0000   0.0000   0.0000
     0.0000   0.0000   0.0000   0.0000

          k = 0.4896 0.3525-0.1059 ( 14960 PWs)   bands (ev):

   -36.6537 -36.6537 -36.6535 -36.6534 -36.6381 -36.6380 -36.6301 -36.6299
   -36.6244 -36.6243 -24.6643 -24.6642 -24.6602 -24.6601 -24.6470 -24.6469
   -24.6390 -24.6389 -24.6327 -24.6326 -10.9009 -10.8642  -7.6191  -7.5820
    -4.4654  -4.3854  -3.2098  -3.1374  -1.8584  -1.7993   2.5975   2.6570
     3.9872   4.0422   4.5656   4.6907   6.4169   6.5226   6.7480   6.7577
     7.1194   7.2294   7.6044   7.7084   8.5129   8.5971   8.7157   8.8157
     9.2392   9.3367   9.5753   9.7096  10.4128  10.4617  10.6035  10.6779
    11.0131  11.1015  11.2352  11.2475

     occupation numbers 
     1.0000   1.0000   1.0000   1.0000   1.0000   1.0000   1.0000   1.0000
     1.0000   1.0000   1.0000   1.0000   1.0000   1.0000   1.0000   1.0000
     1.0000   1.0000   1.0000   1.0000   1.0000   1.0000   1.0000   1.0000
     1.0000   1.0000   1.0000   1.0000   1.0000   1.0000   0.0000   0.0000
     0.0000   0.0000   0.0000   0.0000   0.0000   0.0000   0.0000   0.0000
     0.0000   0.0000   0.0000   0.0000   0.0000   0.0000   0.0000   0.0000
     0.0000   0.0000   0.0000   0.0000   0.0000   0.0000   0.0000   0.0000
     0.0000   0.0000   0.0000   0.0000

          k = 0.4896 0.3727-0.1059 ( 14946 PWs)   bands (ev):

   -36.6537 -36.6537 -36.6535 -36.6534 -36.6381 -36.6380 -36.6301 -36.6300
   -36.6244 -36.6243 -24.6643 -24.6642 -24.6602 -24.6601 -24.6469 -24.6468
   -24.6391 -24.6390 -24.6327 -24.6326 -10.8791 -10.8475  -7.5812  -7.5493
    -4.5537  -4.4834  -3.2903  -3.2260  -1.8545  -1.8040   2.6207   2.6716
     3.9741   4.0234   4.7558   4.8718   6.5721   6.6336   6.7605   6.8148
     7.2183   7.3313   7.6725   7.7860   8.5576   8.6456   8.7613   8.7890
     9.2070   9.2224   9.4150   9.5449  10.3021  10.3722  10.5542  10.6240
    10.9940  11.0392  11.2707  11.3075

     occupation numbers 
     1.0000   1.0000   1.0000   1.0000   1.0000   1.0000   1.0000   1.0000
     1.0000   1.0000   1.0000   1.0000   1.0000   1.0000   1.0000   1.0000
     1.0000   1.0000   1.0000   1.0000   1.0000   1.0000   1.0000   1.0000
     1.0000   1.0000   1.0000   1.0000   1.0000   1.0000   0.0000   0.0000
     0.0000   0.0000   0.0000   0.0000   0.0000   0.0000   0.0000   0.0000
     0.0000   0.0000   0.0000   0.0000   0.0000   0.0000   0.0000   0.0000
     0.0000   0.0000   0.0000   0.0000   0.0000   0.0000   0.0000   0.0000
     0.0000   0.0000   0.0000   0.0000

          k = 0.4896 0.3928-0.1059 ( 14952 PWs)   bands (ev):

   -36.6537 -36.6537 -36.6535 -36.6534 -36.6381 -36.6379 -36.6301 -36.6300
   -36.6244 -36.6243 -24.6643 -24.6642 -24.6602 -24.6602 -24.6469 -24.6468
   -24.6391 -24.6390 -24.6327 -24.6326 -10.8598 -10.8335  -7.5472  -7.5208
    -4.6271  -4.5677  -3.3596  -3.3048  -1.8479  -1.8061   2.6399   2.6818
     3.9567   3.9999   4.9299   5.0303   6.6628   6.6703   6.8230   6.9258
     7.3225   7.4312   7.7553   7.8748   8.5796   8.6626   8.7167   8.7607
     9.1834   9.2587   9.2845   9.3950  10.1881  10.2621  10.4451  10.5275
    10.9575  10.9844  11.3739  11.4032

     occupation numbers 
     1.0000   1.0000   1.0000   1.0000   1.0000   1.0000   1.0000   1.0000
     1.0000   1.0000   1.0000   1.0000   1.0000   1.0000   1.0000   1.0000
     1.0000   1.0000   1.0000   1.0000   1.0000   1.0000   1.0000   1.0000
     1.0000   1.0000   1.0000   1.0000   1.0000   1.0000   0.0000   0.0000
     0.0000   0.0000   0.0000   0.0000   0.0000   0.0000   0.0000   0.0000
     0.0000   0.0000   0.0000   0.0000   0.0000   0.0000   0.0000   0.0000
     0.0000   0.0000   0.0000   0.0000   0.0000   0.0000   0.0000   0.0000
     0.0000   0.0000   0.0000   0.0000

          k = 0.4896 0.4130-0.1059 ( 14964 PWs)   bands (ev):

   -36.6537 -36.6537 -36.6535 -36.6534 -36.6380 -36.6379 -36.6301 -36.6300
   -36.6244 -36.6243 -24.6643 -24.6642 -24.6603 -24.6602 -24.6468 -24.6467
   -24.6391 -24.6390 -24.6326 -24.6325 -10.8431 -10.8224  -7.5180  -7.4972
    -4.6851  -4.6376  -3.4157  -3.3718  -1.8401  -1.8073   2.6553   2.6881
     3.9417   3.9774   5.0778   5.1588   6.6774   6.6824   6.9430   7.0463
     7.4243   7.5228   7.8485   7.9694   8.5167   8.6088   8.6995   8.7332
     9.1628   9.2510   9.2606   9.3662  10.0821  10.1474  10.3108  10.4026
    10.8907  10.9624  11.4285  11.5375

     occupation numbers 
     1.0000   1.0000   1.0000   1.0000   1.0000   1.0000   1.0000   1.0000
     1.0000   1.0000   1.0000   1.0000   1.0000   1.0000   1.0000   1.0000
     1.0000   1.0000   1.0000   1.0000   1.0000   1.0000   1.0000   1.0000
     1.0000   1.0000   1.0000   1.0000   1.0000   1.0000   0.0000   0.0000
     0.0000   0.0000   0.0000   0.0000   0.0000   0.0000   0.0000   0.0000
     0.0000   0.0000   0.0000   0.0000   0.0000   0.0000   0.0000   0.0000
     0.0000   0.0000   0.0000   0.0000   0.0000   0.0000   0.0000   0.0000
     0.0000   0.0000   0.0000   0.0000

          k = 0.4896 0.4331-0.1059 ( 14942 PWs)   bands (ev):

   -36.6537 -36.6537 -36.6535 -36.6534 -36.6380 -36.6379 -36.6301 -36.6300
   -36.6244 -36.6243 -24.6643 -24.6642 -24.6603 -24.6602 -24.6468 -24.6467
   -24.6391 -24.6390 -24.6326 -24.6325 -10.8294 -10.8145  -7.4943  -7.4794
    -4.7272  -4.6926  -3.4573  -3.4252  -1.8321  -1.8085   2.6674   2.6910
     3.9314   3.9582   5.1944   5.2531   6.6795   6.6860   7.0632   7.1489
     7.5164   7.5991   7.9459   8.0611   8.4218   8.5159   8.6765   8.6965
     9.1333   9.1666   9.3436   9.4661   9.9948  10.0405  10.1753  10.2665
    10.8413  10.9203  11.4444  11.4840

     occupation numbers 
     1.0000   1.0000   1.0000   1.0000   1.0000   1.0000   1.0000   1.0000
     1.0000   1.0000   1.0000   1.0000   1.0000   1.0000   1.0000   1.0000
     1.0000   1.0000   1.0000   1.0000   1.0000   1.0000   1.0000   1.0000
     1.0000   1.0000   1.0000   1.0000   1.0000   1.0000   0.0000   0.0000
     0.0000   0.0000   0.0000   0.0000   0.0000   0.0000   0.0000   0.0000
     0.0000   0.0000   0.0000   0.0000   0.0000   0.0000   0.0000   0.0000
     0.0000   0.0000   0.0000   0.0000   0.0000   0.0000   0.0000   0.0000
     0.0000   0.0000   0.0000   0.0000

          k = 0.4896 0.4533-0.1059 ( 14944 PWs)   bands (ev):

   -36.6537 -36.6537 -36.6535 -36.6534 -36.6380 -36.6379 -36.6301 -36.6300
   -36.6244 -36.6243 -24.6643 -24.6642 -24.6603 -24.6602 -24.6468 -24.6467
   -24.6391 -24.6391 -24.6326 -24.6325 -10.8191 -10.8101  -7.4771  -7.4681
    -4.7531  -4.7320  -3.4834  -3.4637  -1.8247  -1.8105   2.6767   2.6909
     3.9266   3.9431   5.2765   5.3120   6.6821   6.6873   7.1623   7.2198
     7.5927   7.6509   8.0373   8.1301   8.3567   8.4360   8.5985   8.6555
     9.1318   9.1336   9.4461   9.5584   9.9383   9.9582  10.0546  10.1318
    10.8132  10.8710  11.4729  11.5064

     occupation numbers 
     1.0000   1.0000   1.0000   1.0000   1.0000   1.0000   1.0000   1.0000
     1.0000   1.0000   1.0000   1.0000   1.0000   1.0000   1.0000   1.0000
     1.0000   1.0000   1.0000   1.0000   1.0000   1.0000   1.0000   1.0000
     1.0000   1.0000   1.0000   1.0000   1.0000   1.0000   0.0000   0.0000
     0.0000   0.0000   0.0000   0.0000   0.0000   0.0000   0.0000   0.0000
     0.0000   0.0000   0.0000   0.0000   0.0000   0.0000   0.0000   0.0000
     0.0000   0.0000   0.0000   0.0000   0.0000   0.0000   0.0000   0.0000
     0.0000   0.0000   0.0000   0.0000

          k = 0.4896 0.4734-0.1059 ( 14952 PWs)   bands (ev):

   -36.6537 -36.6537 -36.6535 -36.6534 -36.6380 -36.6379 -36.6301 -36.6300
   -36.6244 -36.6243 -24.6643 -24.6642 -24.6603 -24.6602 -24.6467 -24.6466
   -24.6391 -24.6391 -24.6326 -24.6325 -10.8125 -10.8094  -7.4669  -7.4638
    -4.7625  -4.7554  -3.4932  -3.4866  -1.8185  -1.8138   2.6836   2.6884
     3.9271   3.9327   5.3235   5.3353   6.6852   6.6871   7.2275   7.2480
     7.6463   7.6681   8.1072   8.1445   8.3499   8.3876   8.5547   8.5904
     9.1321   9.1371   9.5422   9.5944   9.9258   9.9393   9.9668  10.0124
    10.8096  10.8305  11.4997  11.5126

     occupation numbers 
     1.0000   1.0000   1.0000   1.0000   1.0000   1.0000   1.0000   1.0000
     1.0000   1.0000   1.0000   1.0000   1.0000   1.0000   1.0000   1.0000
     1.0000   1.0000   1.0000   1.0000   1.0000   1.0000   1.0000   1.0000
     1.0000   1.0000   1.0000   1.0000   1.0000   1.0000   0.0000   0.0000
     0.0000   0.0000   0.0000   0.0000   0.0000   0.0000   0.0000   0.0000
     0.0000   0.0000   0.0000   0.0000   0.0000   0.0000   0.0000   0.0000
     0.0000   0.0000   0.0000   0.0000   0.0000   0.0000   0.0000   0.0000
     0.0000   0.0000   0.0000   0.0000

     the Fermi energy is     1.0202 ev

!    total energy              =    -632.72087775 Ry
     estimated scf accuracy    <          3.8E-10 Ry

     The total energy is the sum of the following terms:
     one-electron contribution =   -2665.03976405 Ry
     hartree contribution      =    1330.29856605 Ry
     xc contribution           =     -71.68931155 Ry
     ewald contribution        =     773.70963180 Ry

     convergence has been achieved in  10 iterations

     Writing output data file ./work/GeTe-mono.save/
 
     init_run     :     14.80s CPU     16.12s WALL (       1 calls)
     electrons    :    706.58s CPU    744.13s WALL (       1 calls)

     Called by init_run:
     wfcinit      :     14.41s CPU     15.70s WALL (       1 calls)
     wfcinit:atom :      0.01s CPU      0.02s WALL (     576 calls)
     wfcinit:wfcr :     13.28s CPU     14.53s WALL (     576 calls)
     potinit      :      0.15s CPU      0.16s WALL (       1 calls)
     hinit0       :      0.08s CPU      0.09s WALL (       1 calls)

     Called by electrons:
     c_bands      :    630.31s CPU    663.06s WALL (      11 calls)
     sum_band     :     75.84s CPU     80.54s WALL (      11 calls)
     v_of_rho     :      0.34s CPU      0.42s WALL (      11 calls)
     v_h          :      0.01s CPU      0.03s WALL (      11 calls)
     v_xc         :      0.34s CPU      0.39s WALL (      11 calls)
     mix_rho      :      0.06s CPU      0.05s WALL (      11 calls)

     Called by c_bands:
     init_us_2    :      5.22s CPU      5.13s WALL (   13248 calls)
     cegterg      :    605.50s CPU    638.05s WALL (    6336 calls)

     Called by sum_band:
     sum_band:wei :      6.30s CPU      6.31s WALL (      11 calls)
     sum_band:loo :     69.46s CPU     74.15s WALL (      11 calls)
     sum_band:buf :      0.74s CPU      0.79s WALL (    6336 calls)
     sum_band:ini :      2.20s CPU      2.32s WALL (    6336 calls)

     Called by *egterg:
     cdiaghg      :    132.99s CPU    134.91s WALL (   34559 calls)
     cegterg:over :     32.08s CPU     34.00s WALL (   28799 calls)
     cegterg:upda :     15.96s CPU     16.00s WALL (   28799 calls)
     cegterg:last :     23.87s CPU     23.93s WALL (   16096 calls)
     h_psi        :    396.90s CPU    426.05s WALL (   35711 calls)
     g_psi        :      2.02s CPU      2.02s WALL (   28799 calls)

     Called by h_psi:
     h_psi:calbec :     16.57s CPU     17.78s WALL (   35711 calls)
     vloc_psi     :    364.46s CPU    391.13s WALL (   35711 calls)
     add_vuspsi   :     13.09s CPU     14.21s WALL (   35711 calls)

     General routines
     calbec       :     16.50s CPU     17.69s WALL (   35711 calls)
     fft          :      0.18s CPU      0.29s WALL (     130 calls)
     ffts         :      0.01s CPU      0.01s WALL (      22 calls)
     fftw         :    392.11s CPU    420.20s WALL ( 2670618 calls)
     interpolate  :      0.02s CPU      0.02s WALL (      11 calls)
 
     Parallel routines
     fft_scatt_xy :     45.80s CPU     48.79s WALL ( 2670770 calls)
     fft_scatt_yz :    160.65s CPU    172.83s WALL ( 2670770 calls)
 
     PWSCF        :  12m 5.63s CPU  12m50.67s WALL

 
   This run was terminated on:   0:33:41  13Sep2021            

=------------------------------------------------------------------------------=
   JOB DONE.
=------------------------------------------------------------------------------=
