
     Program PWSCF v.6.7MaX starts on 13Sep2021 at  0: 1:45 

     This program is part of the open-source Quantum ESPRESSO suite
     for quantum simulation of materials; please cite
         "P. Giannozzi et al., J. Phys.:Condens. Matter 21 395502 (2009);
         "P. Giannozzi et al., J. Phys.:Condens. Matter 29 465901 (2017);
          URL http://www.quantum-espresso.org", 
     in publications or presentations arising from this work. More details at
     http://www.quantum-espresso.org/quote

     Parallel version (MPI), running on    20 processors

     MPI processes distributed on     1 nodes
     R & G space division:  proc/nbgrp/npool/nimage =      20
     Waiting for input...
     Reading input from standard input

     Current dimensions of program PWSCF are:
     Max number of different atomic species (ntypx) = 10
     Max number of k-points (npk) =  40000
     Max angular momentum in pseudopotentials (lmaxx) =  3
     Message from routine read_pp_mesh:
     mesh size missing, using the one in header
     Message from routine read_pp_mesh:
     mesh size missing, using the one in header

     Subspace diagonalization in iterative solution of the eigenvalue problem:
     a serial algorithm will be used

     Message from routine setup:
     no reason to have ecutrho>4*ecutwfc
     Message from routine setup:
     using ibrav=0 with symmetry is DISCOURAGED, use correct ibrav instead
 
     Parallelization info
     --------------------
     sticks:   dense  smooth     PW     G-vecs:    dense   smooth      PW
     Min         158      52     14                31098     5974     910
     Max         159      53     15                31109     5993     937
     Sum        3163    1049    299               622029   119627   18573
 


     bravais-lattice index     =            0
     lattice parameter (alat)  =       8.0079  a.u.
     unit-cell volume          =    2506.4848 (a.u.)^3
     number of atoms/cell      =            4
     number of atomic types    =            2
     number of electrons       =        60.00
     number of Kohn-Sham states=           60
     kinetic-energy cutoff     =      50.0000  Ry
     charge density cutoff     =     600.0000  Ry
     scf convergence threshold =      1.0E-09
     mixing beta               =       0.7000
     number of iterations used =            8  plain     mixing
     Exchange-correlation= PBE
                           (   1   4   3   4   0   0   0)

     celldm(1)=   8.007887  celldm(2)=   0.000000  celldm(3)=   0.000000
     celldm(4)=   0.000000  celldm(5)=   0.000000  celldm(6)=   0.000000

     crystal axes: (cart. coord. in units of alat)
               a(1) = (   1.000000   0.000000   0.000000 )  
               a(2) = (   0.000000   1.034190   0.000000 )  
               a(3) = (   0.000000   0.000000   4.719662 )  

     reciprocal axes: (cart. coord. in units 2 pi/alat)
               b(1) = (  1.000000  0.000000  0.000000 )  
               b(2) = (  0.000000  0.966940  0.000000 )  
               b(3) = (  0.000000  0.000000  0.211880 )  


     PseudoPot. # 1 for Ge read from file:
     ../../pseudo/Ge_ONCV_PBE-1.2.upf
     MD5 check sum: 9f45083245c564cb2163622d60d05ca9
     Pseudo is Norm-conserving, Zval = 14.0
     Generated using ONCVPSP code by D. R. Hamann
     Using radial grid of  602 points,  6 beta functions with: 
                l(1) =   0
                l(2) =   0
                l(3) =   1
                l(4) =   1
                l(5) =   2
                l(6) =   2

     PseudoPot. # 2 for Te read from file:
     ../../pseudo/Te_ONCV_PBE-1.2.upf
     MD5 check sum: dd4de4dac1e38587f63aaf3700bb29d3
     Pseudo is Norm-conserving, Zval = 16.0
     Generated using ONCVPSP code by D. R. Hamann
     Using radial grid of  602 points,  6 beta functions with: 
                l(1) =   0
                l(2) =   0
                l(3) =   1
                l(4) =   1
                l(5) =   2
                l(6) =   2

     atomic species   valence    mass     pseudopotential
        Ge            14.00    72.63000     Ge( 1.00)
        Te            16.00   127.60000     Te( 1.00)

      2 Sym. Ops. (no inversion) found



   Cartesian axes

     site n.     atom                  positions (alat units)
         1           Ge  tau(   1) = (   0.0000000   0.4852822   1.6614487  )
         2           Ge  tau(   2) = (   0.5000000   1.0023560   1.0938804  )
         3           Te  tau(   3) = (   0.5000000   0.0318432   1.7374834  )
         4           Te  tau(   4) = (   0.0000000   0.5488986   1.0178653  )

     number of k points=   576

     Number of k-points >= 100: set verbosity='high' to print them.

     Dense  grid:   622029 G-vectors     FFT dimensions: (  64,  72, 300)

     Smooth grid:   119627 G-vectors     FFT dimensions: (  40,  40, 180)

     Estimated max dynamical RAM per process >     421.79 MB

     Estimated total dynamical RAM >       8.24 GB

     Initial potential from superposition of free atoms

     starting charge   59.81470, renormalised to   60.00000

     negative rho (up, down):  4.789E-04 0.000E+00
     Starting wfcs are random

     total cpu time spent up to now is       27.9 secs

     Self-consistent Calculation

     iteration #  1     ecut=    50.00 Ry     beta= 0.70
     Davidson diagonalization with overlap
     ethr =  1.00E-02,  avg # of iterations = 10.0

     Threshold (ethr) on eigenvalues was too large:
     Diagonalizing with lowered threshold

     Davidson diagonalization with overlap
     c_bands:  2 eigenvalues not converged
     c_bands:  1 eigenvalues not converged
     ethr =  5.80E-05,  avg # of iterations = 10.5

     negative rho (up, down):  3.719E-05 0.000E+00

     total cpu time spent up to now is      455.1 secs

     total energy              =    -632.71463223 Ry
     estimated scf accuracy    <       0.02880202 Ry

     iteration #  2     ecut=    50.00 Ry     beta= 0.70
     Davidson diagonalization with overlap
     ethr =  4.80E-05,  avg # of iterations =  2.2

     negative rho (up, down):  1.837E-05 0.000E+00

     total cpu time spent up to now is      544.2 secs

     total energy              =    -632.71704232 Ry
     estimated scf accuracy    <       0.01049478 Ry

     iteration #  3     ecut=    50.00 Ry     beta= 0.70
     Davidson diagonalization with overlap
     c_bands:  1 eigenvalues not converged
     ethr =  1.75E-05,  avg # of iterations =  7.6

     negative rho (up, down):  6.572E-06 0.000E+00

     total cpu time spent up to now is      660.2 secs

     total energy              =    -632.71968961 Ry
     estimated scf accuracy    <       0.00555620 Ry

     iteration #  4     ecut=    50.00 Ry     beta= 0.70
     Davidson diagonalization with overlap
     c_bands:  1 eigenvalues not converged
     c_bands:  1 eigenvalues not converged
     ethr =  9.26E-06,  avg # of iterations =  4.4

     negative rho (up, down):  1.527E-06 0.000E+00

     total cpu time spent up to now is      754.4 secs

     total energy              =    -632.72077361 Ry
     estimated scf accuracy    <       0.00039777 Ry

     iteration #  5     ecut=    50.00 Ry     beta= 0.70
     Davidson diagonalization with overlap
     c_bands:  1 eigenvalues not converged
     c_bands:  1 eigenvalues not converged
     c_bands:  1 eigenvalues not converged
     c_bands:  1 eigenvalues not converged
     c_bands:  1 eigenvalues not converged
     c_bands:  1 eigenvalues not converged
     ethr =  6.63E-07,  avg # of iterations =  5.8

     negative rho (up, down):  9.128E-08 0.000E+00

     total cpu time spent up to now is      856.9 secs

     total energy              =    -632.72085142 Ry
     estimated scf accuracy    <       0.00006628 Ry

     iteration #  6     ecut=    50.00 Ry     beta= 0.70
     Davidson diagonalization with overlap
     c_bands:  1 eigenvalues not converged
     ethr =  1.10E-07,  avg # of iterations =  2.2

     total cpu time spent up to now is      938.9 secs

     total energy              =    -632.72083443 Ry
     estimated scf accuracy    <       0.00041208 Ry

     iteration #  7     ecut=    50.00 Ry     beta= 0.70
     Davidson diagonalization with overlap
     ethr =  1.10E-07,  avg # of iterations =  1.1

     total cpu time spent up to now is      985.2 secs

     total energy              =    -632.72087717 Ry
     estimated scf accuracy    <       0.00000194 Ry

     iteration #  8     ecut=    50.00 Ry     beta= 0.70
     Davidson diagonalization with overlap
     ethr =  3.24E-09,  avg # of iterations =  2.0

     total cpu time spent up to now is     1033.5 secs

     total energy              =    -632.72087754 Ry
     estimated scf accuracy    <       0.00000008 Ry

     iteration #  9     ecut=    50.00 Ry     beta= 0.70
     Davidson diagonalization with overlap
     ethr =  1.32E-10,  avg # of iterations =  2.0

     total cpu time spent up to now is     1083.7 secs

     total energy              =    -632.72087757 Ry
     estimated scf accuracy    <          7.8E-09 Ry

     iteration # 10     ecut=    50.00 Ry     beta= 0.70
     Davidson diagonalization with overlap
     ethr =  1.30E-11,  avg # of iterations =  2.2

     total cpu time spent up to now is     1135.9 secs

     End of self-consistent calculation

     Number of k-points >= 100: set verbosity='high' to print the bands.

     highest occupied, lowest unoccupied level (ev):     0.1336    1.0202

!    total energy              =    -632.72087757 Ry
     estimated scf accuracy    <          3.8E-10 Ry

     The total energy is the sum of the following terms:
     one-electron contribution =   -2665.03976222 Ry
     hartree contribution      =    1330.29856450 Ry
     xc contribution           =     -71.68931165 Ry
     ewald contribution        =     773.70963180 Ry

     convergence has been achieved in  10 iterations

     Writing output data file ./work/GeTe-mono.save/
 
     init_run     :     22.06s CPU     27.82s WALL (       1 calls)
     electrons    :    998.64s CPU   1108.04s WALL (       1 calls)

     Called by init_run:
     wfcinit      :     21.11s CPU     26.82s WALL (       1 calls)
     potinit      :      0.35s CPU      0.37s WALL (       1 calls)
     hinit0       :      0.24s CPU      0.26s WALL (       1 calls)

     Called by electrons:
     c_bands      :    903.09s CPU    997.45s WALL (      11 calls)
     sum_band     :     94.91s CPU    109.88s WALL (      11 calls)
     v_of_rho     :      0.53s CPU      0.62s WALL (      11 calls)
     mix_rho      :      0.07s CPU      0.07s WALL (      11 calls)

     Called by c_bands:
     init_us_2    :      6.57s CPU      6.79s WALL (   13248 calls)
     cegterg      :    863.79s CPU    957.85s WALL (    6336 calls)

     Called by *egterg:
     cdiaghg      :    168.03s CPU    170.74s WALL (   34561 calls)
     h_psi        :    564.72s CPU    656.00s WALL (   35713 calls)
     g_psi        :      2.64s CPU      2.65s WALL (   28801 calls)

     Called by h_psi:
     h_psi:calbec :     25.48s CPU     29.22s WALL (   35713 calls)
     vloc_psi     :    517.74s CPU    603.78s WALL (   35713 calls)
     add_vuspsi   :     18.32s CPU     19.74s WALL (   35713 calls)

     General routines
     calbec       :     25.34s CPU     29.10s WALL (   35713 calls)
     fft          :      0.35s CPU      0.46s WALL (     130 calls)
     ffts         :      0.01s CPU      0.01s WALL (      22 calls)
     fftw         :    559.84s CPU    653.55s WALL ( 2670612 calls)
     interpolate  :      0.03s CPU      0.04s WALL (      11 calls)
 
     Parallel routines
     fft_scatt_xy :     56.86s CPU     65.31s WALL ( 2670764 calls)
     fft_scatt_yz :    274.19s CPU    328.79s WALL ( 2670764 calls)
 
     PWSCF        :  17m 5.23s CPU  19m 5.74s WALL

 
   This run was terminated on:   0:20:50  13Sep2021            

=------------------------------------------------------------------------------=
   JOB DONE.
=------------------------------------------------------------------------------=
