
     Program PWSCF v.6.7MaX starts on 22Feb2021 at  3:30: 3 

     This program is part of the open-source Quantum ESPRESSO suite
     for quantum simulation of materials; please cite
         "P. Giannozzi et al., J. Phys.:Condens. Matter 21 395502 (2009);
         "P. Giannozzi et al., J. Phys.:Condens. Matter 29 465901 (2017);
          URL http://www.quantum-espresso.org", 
     in publications or presentations arising from this work. More details at
     http://www.quantum-espresso.org/quote

     Parallel version (MPI), running on    40 processors

     MPI processes distributed on     1 nodes
     R & G space division:  proc/nbgrp/npool/nimage =      40
     Waiting for input...
     Reading input from standard input

     Current dimensions of program PWSCF are:
     Max number of different atomic species (ntypx) = 10
     Max number of k-points (npk) =  40000
     Max angular momentum in pseudopotentials (lmaxx) =  3

     Atomic positions and unit cell read from directory:
     ./work/GeTe-c.save/
     Atomic positions from file used, from input discarded
 
     Message from routine read_pp_mesh:
     mesh size missing, using the one in header
     Message from routine read_pp_mesh:
     mesh size missing, using the one in header

     Subspace diagonalization in iterative solution of the eigenvalue problem:
     a serial algorithm will be used

     Message from routine setup:
     no reason to have ecutrho>4*ecutwfc
     Message from routine setup:
     using ibrav=0 with symmetry is DISCOURAGED, use correct ibrav instead
 
     Parallelization info
     --------------------
     sticks:   dense  smooth     PW     G-vecs:    dense   smooth      PW
     Min          66      22      6                 2267      436      67
     Max          67      23      7                 2271      439      71
     Sum        2677     889    253                90777    17477    2741
 


     bravais-lattice index     =            0
     lattice parameter (alat)  =       8.0289  a.u.
     unit-cell volume          =     365.9749 (a.u.)^3
     number of atoms/cell      =            2
     number of atomic types    =            2
     number of electrons       =        30.00
     number of Kohn-Sham states=           30
     kinetic-energy cutoff     =      50.0000  Ry
     charge density cutoff     =     600.0000  Ry
     Exchange-correlation= PBE
                           (   1   4   3   4   0   0   0)

     celldm(1)=   8.028889  celldm(2)=   0.000000  celldm(3)=   0.000000
     celldm(4)=   0.000000  celldm(5)=   0.000000  celldm(6)=   0.000000

     crystal axes: (cart. coord. in units of alat)
               a(1) = (   1.000000   0.000000   0.000000 )  
               a(2) = (   0.500000   0.866025   0.000000 )  
               a(3) = (   0.500000   0.288675   0.816497 )  

     reciprocal axes: (cart. coord. in units 2 pi/alat)
               b(1) = (  1.000000 -0.577350 -0.408248 )  
               b(2) = (  0.000000  1.154701 -0.408248 )  
               b(3) = (  0.000000  0.000000  1.224745 )  


     PseudoPot. # 1 for Ge read from file:
     ../../../pseudo/Ge_ONCV_PBE-1.2.upf
     MD5 check sum: 9f45083245c564cb2163622d60d05ca9
     Pseudo is Norm-conserving, Zval = 14.0
     Generated using ONCVPSP code by D. R. Hamann
     Using radial grid of  602 points,  6 beta functions with: 
                l(1) =   0
                l(2) =   0
                l(3) =   1
                l(4) =   1
                l(5) =   2
                l(6) =   2

     PseudoPot. # 2 for Te read from file:
     ../../../pseudo/Te_ONCV_PBE-1.2.upf
     MD5 check sum: dd4de4dac1e38587f63aaf3700bb29d3
     Pseudo is Norm-conserving, Zval = 16.0
     Generated using ONCVPSP code by D. R. Hamann
     Using radial grid of  602 points,  6 beta functions with: 
                l(1) =   0
                l(2) =   0
                l(3) =   1
                l(4) =   1
                l(5) =   2
                l(6) =   2

     atomic species   valence    mass     pseudopotential
        Ge            14.00    72.63000     Ge( 1.00)
        Te            16.00   127.60000     Te( 1.00)

     12 Sym. Ops., with inversion, found



   Cartesian axes

     site n.     atom                  positions (alat units)
         1           Ge  tau(   1) = (   0.0000000   0.0000000   0.0000000  )
         2           Te  tau(   2) = (   1.0000000   0.5773503   0.4082483  )

     number of k points=   201

     Number of k-points >= 100: set verbosity='high' to print them.

     Dense  grid:    90777 G-vectors     FFT dimensions: (  64,  64,  64)

     Smooth grid:    17477 G-vectors     FFT dimensions: (  40,  40,  40)

     Estimated max dynamical RAM per process >       5.17 MB

     Estimated total dynamical RAM >     207.00 MB

     The potential is recalculated from file :
     ./work/GeTe-c.save/charge-density

     Starting wfcs are random

     Band Structure Calculation
     Davidson diagonalization with overlap
     c_bands:  1 eigenvalues not converged
     c_bands:  1 eigenvalues not converged
     c_bands:  1 eigenvalues not converged
     c_bands:  1 eigenvalues not converged
     c_bands:  1 eigenvalues not converged
     c_bands:  1 eigenvalues not converged
     c_bands:  1 eigenvalues not converged
     c_bands:  1 eigenvalues not converged
     c_bands:  1 eigenvalues not converged
     c_bands:  1 eigenvalues not converged
     c_bands:  1 eigenvalues not converged
     c_bands:  1 eigenvalues not converged
     c_bands:  2 eigenvalues not converged

     ethr =  3.33E-12,  avg # of iterations = 54.2

     total cpu time spent up to now is      121.3 secs

     End of band structure calculation

     Number of k-points >= 100: set verbosity='high' to print the bands.

     Writing output data file ./work/GeTe-c.save/
 
     init_run     :      0.11s CPU      0.12s WALL (       1 calls)
     electrons    :     67.85s CPU     74.78s WALL (       1 calls)

     Called by init_run:
     wfcinit      :      0.00s CPU      0.00s WALL (       1 calls)
     potinit      :      0.02s CPU      0.02s WALL (       1 calls)
     hinit0       :      0.04s CPU      0.04s WALL (       1 calls)

     Called by electrons:
     c_bands      :     67.85s CPU     74.78s WALL (       1 calls)
     v_of_rho     :      0.01s CPU      0.01s WALL (       1 calls)

     Called by c_bands:
     init_us_2    :      0.02s CPU      0.02s WALL (     201 calls)
     cegterg      :     66.27s CPU     72.58s WALL (     623 calls)

     Called by *egterg:
     cdiaghg      :     19.56s CPU     21.68s WALL (   11095 calls)
     h_psi        :     41.00s CPU     45.01s WALL (   11718 calls)
     g_psi        :      0.08s CPU      0.09s WALL (   10894 calls)

     Called by h_psi:
     h_psi:calbec :      1.72s CPU      1.97s WALL (   11718 calls)
     vloc_psi     :     38.57s CPU     42.25s WALL (   11718 calls)
     add_vuspsi   :      0.53s CPU      0.60s WALL (   11718 calls)

     General routines
     calbec       :      1.67s CPU      1.92s WALL (   11718 calls)
     fft          :      0.01s CPU      0.01s WALL (      11 calls)
     ffts         :      0.00s CPU      0.00s WALL (       1 calls)
     fftw         :     36.76s CPU     40.29s WALL (  373018 calls)
     interpolate  :      0.00s CPU      0.00s WALL (       1 calls)
     davcio       :      0.04s CPU      0.05s WALL (     402 calls)
 
     Parallel routines
     fft_scatt_xy :      2.09s CPU      2.28s WALL (  373030 calls)
     fft_scatt_yz :     21.24s CPU     23.34s WALL (  373030 calls)
 
     PWSCF        :   1m53.42s CPU   2m 5.42s WALL

 
   This run was terminated on:   3:32: 8  22Feb2021            

=------------------------------------------------------------------------------=
   JOB DONE.
=------------------------------------------------------------------------------=
