
     Program BANDS v.6.7MaX starts on 22Feb2021 at  3:32: 9 

     This program is part of the open-source Quantum ESPRESSO suite
     for quantum simulation of materials; please cite
         "P. Giannozzi et al., J. Phys.:Condens. Matter 21 395502 (2009);
         "P. Giannozzi et al., J. Phys.:Condens. Matter 29 465901 (2017);
          URL http://www.quantum-espresso.org", 
     in publications or presentations arising from this work. More details at
     http://www.quantum-espresso.org/quote

     Parallel version (MPI), running on    40 processors

     MPI processes distributed on     1 nodes
     R & G space division:  proc/nbgrp/npool/nimage =      40

     Reading xml data from directory:

     ./work/GeTe-c.save/
     Message from routine read_pp_mesh:
     mesh size missing, using the one in header
     Message from routine read_pp_mesh:
     mesh size missing, using the one in header

     IMPORTANT: XC functional enforced from input :
     Exchange-correlation= PBE
                           (   1   4   3   4   0   0   0)
     Any further DFT definition will be discarded
     Please, verify this is what you really want

 
     Parallelization info
     --------------------
     sticks:   dense  smooth     PW     G-vecs:    dense   smooth      PW
     Min          66      22      6                 2267      436      67
     Max          67      23      7                 2271      439      71
     Sum        2677     889    253                90777    17477    2741
 
     Reading collected, re-writing distributed wavefunctions
     high-symmetry point:  0.2500 0.4330 0.6124   x coordinate   0.0000
     high-symmetry point:  0.0000 0.0000 0.6124   x coordinate   0.5000
     high-symmetry point:  0.0000 0.4330 0.6124   x coordinate   0.9330
     high-symmetry point:  0.0000 0.5774 0.4082   x coordinate   1.1830
     high-symmetry point:  0.0000 0.0000 0.0000   x coordinate   1.8901
     high-symmetry point:  0.3750 0.2165 0.6124   x coordinate   2.6401

     Plottable bands (eV) written to file GeTe-c.bands.gnu
     Bands written to file GeTe-c.bands

 **************************************************************************

                    xk=(   0.25000,   0.43301,   0.61237  )

     point group C_2  (2)   
     there are  2 classes
     the character table:

       E     C2   
A      1.00  1.00
B      1.00 -1.00

     the symmetry operations in each class and the name of the first element:

     E        1
                                                                 
     C2       2
                                                                 

     Band symmetry, C_2  (2)    point group:

     e(  1 -  1) =    -25.99617  eV     1   -->   ?
     e(  2 -  2) =    -25.99504  eV     1   -->   ?
     e(  3 -  4) =    -25.99385  eV     2   -->   ?
     e(  5 -  5) =    -25.99230  eV     1   -->   ?
     e(  6 -  6) =    -14.08525  eV     1   --> B              
     e(  7 -  7) =    -14.08211  eV     1   -->   ?
     e(  8 -  9) =    -14.08002  eV     2   -->   ?
     e( 10 - 10) =    -14.07775  eV     1   --> A              
     e( 11 - 11) =      0.06243  eV     1   --> B              
     e( 12 - 12) =      2.71933  eV     1   --> A              
     e( 13 - 14) =      6.10532  eV     2   --> A              
     e( 13 - 14) =      6.10532  eV     2   --> B              
     e( 15 - 15) =     10.44089  eV     1   --> A              
     e( 16 - 16) =     11.81083  eV     1   --> B              
     e( 17 - 18) =     16.58518  eV     2   --> A              
     e( 17 - 18) =     16.58518  eV     2   --> B              
     e( 19 - 19) =     17.13318  eV     1   -->   ?
     e( 20 - 20) =     17.13330  eV     1   -->   ?
     e( 21 - 21) =     22.63024  eV     1   --> A              
     e( 22 - 22) =     22.83064  eV     1   --> B              
     e( 23 - 23) =     24.24770  eV     1   --> B              
     e( 24 - 24) =     24.47631  eV     1   -->   ?
     e( 25 - 25) =     24.47653  eV     1   -->   ?
     e( 26 - 26) =     24.94671  eV     1   --> A              
     e( 27 - 27) =     28.24884  eV     1   --> B              
     e( 28 - 28) =     28.65479  eV     1   --> A              
     e( 29 - 30) =     29.11719  eV     2   --> A              
     e( 29 - 30) =     29.11719  eV     2   --> B              

 **************************************************************************

 **************************************************************************

                    xk=(   0.24500,   0.42435,   0.61237  )

     Band symmetry, C_2  (2)    point group:

     e(  1 -  1) =    -25.99617  eV     1   -->   ?
     e(  2 -  2) =    -25.99503  eV     1   -->   ?
     e(  3 -  4) =    -25.99385  eV     2   -->   ?
     e(  5 -  5) =    -25.99229  eV     1   -->   ?
     e(  6 -  6) =    -14.08524  eV     1   --> B              
     e(  7 -  7) =    -14.08211  eV     1   -->   ?
     e(  8 -  9) =    -14.08001  eV     2   -->   ?
     e( 10 - 10) =    -14.07775  eV     1   --> A              
     e( 11 - 11) =      0.06202  eV     1   --> B              
     e( 12 - 12) =      2.71805  eV     1   --> A              
     e( 13 - 13) =      6.10744  eV     1   -->   ?
     e( 14 - 14) =      6.10814  eV     1   -->   ?
     e( 15 - 15) =     10.44043  eV     1   --> A              
     e( 16 - 16) =     11.81018  eV     1   --> B              
     e( 17 - 17) =     16.58479  eV     1   --> B              
     e( 18 - 18) =     16.58584  eV     1   --> A              
     e( 19 - 19) =     17.12962  eV     1   -->   ?
     e( 20 - 20) =     17.13051  eV     1   -->   ?
     e( 21 - 21) =     22.63272  eV     1   --> A              
     e( 22 - 22) =     22.83255  eV     1   --> B              
     e( 23 - 23) =     24.17223  eV     1   --> B              
     e( 24 - 24) =     24.43012  eV     1   --> A              
     e( 25 - 25) =     24.55814  eV     1   --> B              
     e( 26 - 26) =     24.99821  eV     1   --> A              
     e( 27 - 27) =     28.23826  eV     1   --> B              
     e( 28 - 28) =     28.63398  eV     1   --> A              
     e( 29 - 29) =     29.12025  eV     1   --> B              
     e( 30 - 30) =     29.12784  eV     1   --> A              

 **************************************************************************

 **************************************************************************

                    xk=(   0.24000,   0.41569,   0.61237  )

     Band symmetry, C_2  (2)    point group:

     e(  1 -  1) =    -25.99617  eV     1   -->   ?
     e(  2 -  2) =    -25.99504  eV     1   -->   ?
     e(  3 -  4) =    -25.99385  eV     2   -->   ?
     e(  5 -  5) =    -25.99230  eV     1   -->   ?
     e(  6 -  6) =    -14.08524  eV     1   --> B              
     e(  7 -  7) =    -14.08211  eV     1   -->   ?
     e(  8 -  9) =    -14.08001  eV     2   -->   ?
     e( 10 - 10) =    -14.07776  eV     1   --> A              
     e( 11 - 11) =      0.06037  eV     1   --> B              
     e( 12 - 12) =      2.71420  eV     1   --> A              
     e( 13 - 13) =      6.11372  eV     1   --> B              
     e( 14 - 14) =      6.11657  eV     1   --> A              
     e( 15 - 15) =     10.43902  eV     1   --> A              
     e( 16 - 16) =     11.80820  eV     1   --> B              
     e( 17 - 17) =     16.58332  eV     1   --> B              
     e( 18 - 18) =     16.58750  eV     1   --> A              
     e( 19 - 19) =     17.11892  eV     1   -->   ?
     e( 20 - 20) =     17.12265  eV     1   -->   ?
     e( 21 - 21) =     22.63993  eV     1   --> A              
     e( 22 - 22) =     22.83791  eV     1   --> B              
     e( 23 - 23) =     24.04372  eV     1   --> B              
     e( 24 - 24) =     24.32650  eV     1   --> A              
     e( 25 - 25) =     24.70516  eV     1   --> B              
     e( 26 - 26) =     25.11775  eV     1   --> A              
     e( 27 - 27) =     28.20717  eV     1   --> B              
     e( 28 - 28) =     28.57709  eV     1   --> A              
     e( 29 - 29) =     29.12845  eV     1   --> B              
     e( 30 - 30) =     29.15420  eV     1   --> A              

 **************************************************************************

 **************************************************************************

                    xk=(   0.23500,   0.40703,   0.61237  )

     Band symmetry, C_2  (2)    point group:

     e(  1 -  1) =    -25.99617  eV     1   -->   ?
     e(  2 -  2) =    -25.99504  eV     1   -->   ?
     e(  3 -  4) =    -25.99385  eV     2   -->   ?
     e(  5 -  5) =    -25.99230  eV     1   -->   ?
     e(  6 -  6) =    -14.08523  eV     1   --> B              
     e(  7 -  7) =    -14.08212  eV     1   -->   ?
     e(  8 -  9) =    -14.08001  eV     2   -->   ?
     e( 10 - 10) =    -14.07776  eV     1   --> A              
     e( 11 - 11) =      0.05763  eV     1   --> B              
     e( 12 - 12) =      2.70784  eV     1   --> A              
     e( 13 - 13) =      6.12418  eV     1   --> B              
     e( 14 - 14) =      6.13057  eV     1   --> A              
     e( 15 - 15) =     10.43669  eV     1   --> A              
     e( 16 - 16) =     11.80491  eV     1   --> B              
     e( 17 - 17) =     16.57995  eV     1   --> B              
     e( 18 - 18) =     16.58969  eV     1   --> A              
     e( 19 - 19) =     17.10180  eV     1   --> A              
     e( 20 - 20) =     17.11059  eV     1   --> B              
     e( 21 - 21) =     22.65153  eV     1   --> A              
     e( 22 - 22) =     22.84613  eV     1   --> B              
     e( 23 - 23) =     23.91212  eV     1   --> B              
     e( 24 - 24) =     24.20438  eV     1   --> A              
     e( 25 - 25) =     24.86815  eV     1   --> B              
     e( 26 - 26) =     25.26664  eV     1   --> A              
     e( 27 - 27) =     28.15749  eV     1   --> B              
     e( 28 - 28) =     28.49460  eV     1   --> A              
     e( 29 - 29) =     29.14035  eV     1   --> B              
     e( 30 - 30) =     29.18650  eV     1   --> A              

 **************************************************************************

 **************************************************************************

                    xk=(   0.23000,   0.39837,   0.61237  )

     Band symmetry, C_2  (2)    point group:

     e(  1 -  1) =    -25.99616  eV     1   -->   ?
     e(  2 -  2) =    -25.99504  eV     1   -->   ?
     e(  3 -  4) =    -25.99385  eV     2   -->   ?
     e(  5 -  5) =    -25.99231  eV     1   -->   ?
     e(  6 -  6) =    -14.08522  eV     1   --> B              
     e(  7 -  7) =    -14.08213  eV     1   -->   ?
     e(  8 -  9) =    -14.08001  eV     2   -->   ?
     e( 10 - 10) =    -14.07778  eV     1   --> A              
     e( 11 - 11) =      0.05382  eV     1   --> B              
     e( 12 - 12) =      2.69904  eV     1   --> A              
     e( 13 - 13) =      6.13880  eV     1   --> B              
     e( 14 - 14) =      6.15006  eV     1   --> A              
     e( 15 - 15) =     10.43345  eV     1   --> A              
     e( 16 - 16) =     11.80034  eV     1   --> B              
     e( 17 - 17) =     16.57328  eV     1   --> B              
     e( 18 - 18) =     16.59138  eV     1   --> A              
     e( 19 - 19) =     17.07946  eV     1   --> A              
     e( 20 - 20) =     17.09592  eV     1   --> B              
     e( 21 - 21) =     22.66685  eV     1   --> A              
     e( 22 - 22) =     22.85597  eV     1   --> B              
     e( 23 - 23) =     23.78618  eV     1   --> B              
     e( 24 - 24) =     24.07918  eV     1   --> A              
     e( 25 - 25) =     25.03936  eV     1   --> B              
     e( 26 - 26) =     25.42988  eV     1   --> A              
     e( 27 - 27) =     28.09168  eV     1   --> B              
     e( 28 - 28) =     28.39470  eV     1   --> A              
     e( 29 - 29) =     29.15404  eV     1   --> B              
     e( 30 - 30) =     29.21757  eV     1   --> A              

 **************************************************************************

 **************************************************************************

                    xk=(   0.22500,   0.38971,   0.61237  )

     Band symmetry, C_2  (2)    point group:

     e(  1 -  1) =    -25.99616  eV     1   -->   ?
     e(  2 -  2) =    -25.99505  eV     1   -->   ?
     e(  3 -  4) =    -25.99385  eV     2   -->   ?
     e(  5 -  5) =    -25.99232  eV     1   -->   ?
     e(  6 -  6) =    -14.08521  eV     1   --> B              
     e(  7 -  7) =    -14.08214  eV     1   -->   ?
     e(  8 -  9) =    -14.08001  eV     2   -->   ?
     e( 10 - 10) =    -14.07779  eV     1   --> A              
     e( 11 - 11) =      0.04897  eV     1   --> B              
     e( 12 - 12) =      2.68790  eV     1   --> A              
     e( 13 - 13) =      6.15754  eV     1   --> B              
     e( 14 - 14) =      6.17494  eV     1   --> A              
     e( 15 - 15) =     10.42932  eV     1   --> A              
     e( 16 - 16) =     11.79451  eV     1   --> B              
     e( 17 - 17) =     16.56126  eV     1   --> B              
     e( 18 - 18) =     16.59087  eV     1   --> A              
     e( 19 - 19) =     17.05384  eV     1   --> A              
     e( 20 - 20) =     17.08093  eV     1   --> B              
     e( 21 - 21) =     22.68485  eV     1   --> A              
     e( 22 - 22) =     22.86531  eV     1   --> B              
     e( 23 - 23) =     23.66977  eV     1   --> B              
     e( 24 - 24) =     23.95711  eV     1   --> A              
     e( 25 - 25) =     25.21671  eV     1   --> B              
     e( 26 - 26) =     25.60195  eV     1   --> A              
     e( 27 - 27) =     28.01223  eV     1   --> B              
     e( 28 - 28) =     28.28248  eV     1   --> A              
     e( 29 - 29) =     29.16773  eV     1   --> B              
     e( 30 - 30) =     29.24368  eV     1   --> A              

 **************************************************************************

 **************************************************************************

                    xk=(   0.22000,   0.38105,   0.61237  )

     Band symmetry, C_2  (2)    point group:

     e(  1 -  1) =    -25.99616  eV     1   -->   ?
     e(  2 -  2) =    -25.99505  eV     1   -->   ?
     e(  3 -  4) =    -25.99385  eV     2   -->   ?
     e(  5 -  5) =    -25.99234  eV     1   -->   ?
     e(  6 -  6) =    -14.08519  eV     1   --> B              
     e(  7 -  7) =    -14.08216  eV     1   -->   ?
     e(  8 -  9) =    -14.08001  eV     2   -->   ?
     e( 10 - 10) =    -14.07781  eV     1   --> A              
     e( 11 - 11) =      0.04310  eV     1   --> B              
     e( 12 - 12) =      2.67454  eV     1   --> A              
     e( 13 - 13) =      6.18038  eV     1   --> B              
     e( 14 - 14) =      6.20509  eV     1   --> A              
     e( 15 - 15) =     10.42433  eV     1   --> A              
     e( 16 - 16) =     11.78748  eV     1   --> B              
     e( 17 - 17) =     16.54139  eV     1   --> B              
     e( 18 - 18) =     16.58559  eV     1   --> A              
     e( 19 - 19) =     17.02781  eV     1   --> A              
     e( 20 - 20) =     17.06842  eV     1   --> B              
     e( 21 - 21) =     22.70395  eV     1   --> A              
     e( 22 - 22) =     22.87068  eV     1   --> B              
     e( 23 - 23) =     23.56683  eV     1   --> B              
     e( 24 - 24) =     23.84172  eV     1   --> A              
     e( 25 - 25) =     25.39926  eV     1   --> B              
     e( 26 - 26) =     25.78038  eV     1   --> A              
     e( 27 - 27) =     27.92138  eV     1   --> B              
     e( 28 - 28) =     28.16106  eV     1   --> A              
     e( 29 - 29) =     29.18008  eV     1   --> B              
     e( 30 - 30) =     29.26336  eV     1   --> A              

 **************************************************************************

 **************************************************************************

                    xk=(   0.21500,   0.37239,   0.61237  )

     Band symmetry, C_2  (2)    point group:

     e(  1 -  1) =    -25.99615  eV     1   -->   ?
     e(  2 -  2) =    -25.99506  eV     1   -->   ?
     e(  3 -  4) =    -25.99384  eV     2   -->   ?
     e(  5 -  5) =    -25.99235  eV     1   -->   ?
     e(  6 -  6) =    -14.08517  eV     1   --> B              
     e(  7 -  7) =    -14.08218  eV     1   -->   ?
     e(  8 -  9) =    -14.08001  eV     2   -->   ?
     e( 10 - 10) =    -14.07784  eV     1   --> A              
     e( 11 - 11) =      0.03623  eV     1   --> B              
     e( 12 - 12) =      2.65910  eV     1   --> A              
     e( 13 - 13) =      6.20728  eV     1   --> B              
     e( 14 - 14) =      6.24036  eV     1   --> A              
     e( 15 - 15) =     10.41851  eV     1   --> A              
     e( 16 - 16) =     11.77929  eV     1   --> B              
     e( 17 - 17) =     16.51115  eV     1   --> B              
     e( 18 - 18) =     16.57202  eV     1   --> A              
     e( 19 - 19) =     17.00523  eV     1   --> A              
     e( 20 - 20) =     17.06126  eV     1   --> B              
     e( 21 - 21) =     22.72191  eV     1   --> A              
     e( 22 - 22) =     22.86689  eV     1   --> B              
     e( 23 - 23) =     23.48260  eV     1   --> B              
     e( 24 - 24) =     23.73603  eV     1   --> A              
     e( 25 - 25) =     25.58648  eV     1   --> B              
     e( 26 - 26) =     25.96381  eV     1   --> A              
     e( 27 - 27) =     27.82103  eV     1   --> B              
     e( 28 - 28) =     28.03260  eV     1   --> A              
     e( 29 - 29) =     29.19019  eV     1   --> B              
     e( 30 - 30) =     29.27631  eV     1   --> A              

 **************************************************************************

 **************************************************************************

                    xk=(   0.21000,   0.36373,   0.61237  )

     Band symmetry, C_2  (2)    point group:

     e(  1 -  1) =    -25.99615  eV     1   -->   ?
     e(  2 -  2) =    -25.99507  eV     1   -->   ?
     e(  3 -  4) =    -25.99384  eV     2   -->   ?
     e(  5 -  5) =    -25.99237  eV     1   -->   ?
     e(  6 -  6) =    -14.08515  eV     1   --> B              
     e(  7 -  7) =    -14.08220  eV     1   -->   ?
     e(  8 -  8) =    -14.08001  eV     1   -->   ?
     e(  9 -  9) =    -14.07990  eV     1   -->   ?
     e( 10 - 10) =    -14.07786  eV     1   --> A              
     e( 11 - 11) =      0.02842  eV     1   --> B              
     e( 12 - 12) =      2.64173  eV     1   --> A              
     e( 13 - 13) =      6.23818  eV     1   --> B              
     e( 14 - 14) =      6.28058  eV     1   --> A              
     e( 15 - 15) =     10.41189  eV     1   --> A              
     e( 16 - 16) =     11.76999  eV     1   --> B              
     e( 17 - 17) =     16.46866  eV     1   --> B              
     e( 18 - 18) =     16.54632  eV     1   --> A              
     e( 19 - 19) =     16.99032  eV     1   --> A              
     e( 20 - 20) =     17.06171  eV     1   --> B              
     e( 21 - 21) =     22.73554  eV     1   --> A              
     e( 22 - 22) =     22.84763  eV     1   --> B              
     e( 23 - 23) =     23.42322  eV     1   --> B              
     e( 24 - 24) =     23.64347  eV     1   --> A              
     e( 25 - 25) =     25.77792  eV     1   --> B              
     e( 26 - 26) =     26.15126  eV     1   --> A              
     e( 27 - 27) =     27.71276  eV     1   --> B              
     e( 28 - 28) =     27.89872  eV     1   --> A              
     e( 29 - 29) =     29.19760  eV     1   --> B              
     e( 30 - 30) =     29.28295  eV     1   --> A              

 **************************************************************************

 **************************************************************************

                    xk=(   0.20500,   0.35507,   0.61237  )

     Band symmetry, C_2  (2)    point group:

     e(  1 -  1) =    -25.99615  eV     1   -->   ?
     e(  2 -  2) =    -25.99508  eV     1   -->   ?
     e(  3 -  4) =    -25.99384  eV     2   -->   ?
     e(  5 -  5) =    -25.99239  eV     1   -->   ?
     e(  6 -  6) =    -14.08513  eV     1   --> B              
     e(  7 -  7) =    -14.08222  eV     1   -->   ?
     e(  8 -  8) =    -14.08001  eV     1   -->   ?
     e(  9 -  9) =    -14.07989  eV     1   -->   ?
     e( 10 - 10) =    -14.07789  eV     1   --> A              
     e( 11 - 11) =      0.01972  eV     1   --> B              
     e( 12 - 12) =      2.62261  eV     1   --> A              
     e( 13 - 13) =      6.27304  eV     1   --> B              
     e( 14 - 14) =      6.32560  eV     1   --> A              
     e( 15 - 15) =     10.40453  eV     1   --> A              
     e( 16 - 16) =     11.75964  eV     1   --> B              
     e( 17 - 17) =     16.41316  eV     1   --> B              
     e( 18 - 18) =     16.50571  eV     1   --> A              
     e( 19 - 19) =     16.98624  eV     1   --> A              
     e( 20 - 20) =     17.07093  eV     1   --> B              
     e( 21 - 21) =     22.74065  eV     1   --> A              
     e( 22 - 22) =     22.80846  eV     1   --> B              
     e( 23 - 23) =     23.39285  eV     1   --> B              
     e( 24 - 24) =     23.56818  eV     1   --> A              
     e( 25 - 25) =     25.97316  eV     1   --> B              
     e( 26 - 26) =     26.34176  eV     1   --> A              
     e( 27 - 27) =     27.59795  eV     1   --> B              
     e( 28 - 28) =     27.76087  eV     1   --> A              
     e( 29 - 29) =     29.20214  eV     1   --> B              
     e( 30 - 30) =     29.28399  eV     1   --> A              

 **************************************************************************

 **************************************************************************

                    xk=(   0.20000,   0.34641,   0.61237  )

     Band symmetry, C_2  (2)    point group:

     e(  1 -  1) =    -25.99614  eV     1   -->   ?
     e(  2 -  2) =    -25.99509  eV     1   -->   ?
     e(  3 -  4) =    -25.99384  eV     2   -->   ?
     e(  5 -  5) =    -25.99241  eV     1   -->   ?
     e(  6 -  6) =    -14.08510  eV     1   --> B              
     e(  7 -  7) =    -14.08225  eV     1   -->   ?
     e(  8 -  8) =    -14.08001  eV     1   -->   ?
     e(  9 -  9) =    -14.07987  eV     1   -->   ?
     e( 10 - 10) =    -14.07792  eV     1   --> A              
     e( 11 - 11) =      0.01020  eV     1   --> B              
     e( 12 - 12) =      2.60189  eV     1   --> A              
     e( 13 - 13) =      6.31180  eV     1   --> B              
     e( 14 - 14) =      6.37522  eV     1   --> A              
     e( 15 - 15) =     10.39645  eV     1   --> A              
     e( 16 - 16) =     11.74832  eV     1   --> B              
     e( 17 - 17) =     16.34503  eV     1   --> B              
     e( 18 - 18) =     16.44962  eV     1   --> A              
     e( 19 - 19) =     16.99398  eV     1   --> A              
     e( 20 - 20) =     17.08899  eV     1   --> B              
     e( 21 - 21) =     22.73264  eV     1   --> A              
     e( 22 - 22) =     22.75028  eV     1   --> B              
     e( 23 - 23) =     23.39025  eV     1   --> B              
     e( 24 - 24) =     23.51457  eV     1   --> A              
     e( 25 - 25) =     26.17169  eV     1   --> B              
     e( 26 - 26) =     26.53394  eV     1   --> A              
     e( 27 - 27) =     27.47782  eV     1   --> B              
     e( 28 - 28) =     27.62080  eV     1   --> A              
     e( 29 - 29) =     29.20391  eV     1   --> B              
     e( 30 - 30) =     29.28035  eV     1   --> A              

 **************************************************************************

 **************************************************************************

                    xk=(   0.19500,   0.33775,   0.61237  )

     Band symmetry, C_2  (2)    point group:

     e(  1 -  1) =    -25.99614  eV     1   -->   ?
     e(  2 -  2) =    -25.99511  eV     1   -->   ?
     e(  3 -  3) =    -25.99384  eV     1   -->   ?
     e(  4 -  4) =    -25.99373  eV     1   -->   ?
     e(  5 -  5) =    -25.99243  eV     1   -->   ?
     e(  6 -  6) =    -14.08507  eV     1   --> B              
     e(  7 -  7) =    -14.08228  eV     1   -->   ?
     e(  8 -  8) =    -14.08001  eV     1   -->   ?
     e(  9 -  9) =    -14.07985  eV     1   -->   ?
     e( 10 - 10) =    -14.07795  eV     1   --> A              
     e( 11 - 11) =     -0.00011  eV     1   --> B              
     e( 12 - 12) =      2.57977  eV     1   --> A              
     e( 13 - 13) =      6.35438  eV     1   --> B              
     e( 14 - 14) =      6.42927  eV     1   --> A              
     e( 15 - 15) =     10.38773  eV     1   --> A              
     e( 16 - 16) =     11.73609  eV     1   --> B              
     e( 17 - 17) =     16.26530  eV     1   --> B              
     e( 18 - 18) =     16.37936  eV     1   --> A              
     e( 19 - 19) =     17.01264  eV     1   --> A              
     e( 20 - 20) =     17.11527  eV     1   --> B              
     e( 21 - 21) =     22.67835  eV     1   --> B              
     e( 22 - 22) =     22.70801  eV     1   --> A              
     e( 23 - 23) =     23.40970  eV     1   --> B              
     e( 24 - 24) =     23.48585  eV     1   --> A              
     e( 25 - 25) =     26.37276  eV     1   --> B              
     e( 26 - 26) =     26.72491  eV     1   --> A              
     e( 27 - 27) =     27.35371  eV     1   --> B              
     e( 28 - 28) =     27.48162  eV     1   --> A              
     e( 29 - 29) =     29.20319  eV     1   --> B              
     e( 30 - 30) =     29.27299  eV     1   --> A              

 **************************************************************************

 **************************************************************************

                    xk=(   0.19000,   0.32909,   0.61237  )

     Band symmetry, C_2  (2)    point group:

     e(  1 -  1) =    -25.99613  eV     1   -->   ?
     e(  2 -  2) =    -25.99512  eV     1   -->   ?
     e(  3 -  3) =    -25.99384  eV     1   -->   ?
     e(  4 -  4) =    -25.99372  eV     1   -->   ?
     e(  5 -  5) =    -25.99246  eV     1   -->   ?
     e(  6 -  6) =    -14.08504  eV     1   --> B              
     e(  7 -  7) =    -14.08231  eV     1   -->   ?
     e(  8 -  8) =    -14.08001  eV     1   -->   ?
     e(  9 -  9) =    -14.07983  eV     1   -->   ?
     e( 10 - 10) =    -14.07799  eV     1   --> A              
     e( 11 - 11) =     -0.01115  eV     1   --> B              
     e( 12 - 12) =      2.55642  eV     1   --> A              
     e( 13 - 13) =      6.40074  eV     1   --> B              
     e( 14 - 14) =      6.48755  eV     1   --> A              
     e( 15 - 15) =     10.37840  eV     1   --> A              
     e( 16 - 16) =     11.72303  eV     1   --> B              
     e( 17 - 17) =     16.17528  eV     1   --> B              
     e( 18 - 18) =     16.29703  eV     1   --> A              
     e( 19 - 19) =     17.04052  eV     1   --> A              
     e( 20 - 20) =     17.14887  eV     1   --> B              
     e( 21 - 21) =     22.59852  eV     1   --> B              
     e( 22 - 22) =     22.66622  eV     1   --> A              
     e( 23 - 23) =     23.44496  eV     1   --> B              
     e( 24 - 24) =     23.48218  eV     1   --> A              
     e( 25 - 25) =     26.57476  eV     1   --> B              
     e( 26 - 26) =     26.90453  eV     1   --> A              
     e( 27 - 27) =     27.22769  eV     1   --> B              
     e( 28 - 28) =     27.35357  eV     1   --> A              
     e( 29 - 29) =     29.20037  eV     1   --> B              
     e( 30 - 30) =     29.26296  eV     1   --> A              

 **************************************************************************

 **************************************************************************

                    xk=(   0.18500,   0.32043,   0.61237  )

     Band symmetry, C_2  (2)    point group:

     e(  1 -  1) =    -25.99612  eV     1   -->   ?
     e(  2 -  2) =    -25.99514  eV     1   -->   ?
     e(  3 -  3) =    -25.99383  eV     1   -->   ?
     e(  4 -  4) =    -25.99370  eV     1   -->   ?
     e(  5 -  5) =    -25.99248  eV     1   -->   ?
     e(  6 -  6) =    -14.08501  eV     1   --> B              
     e(  7 -  7) =    -14.08235  eV     1   -->   ?
     e(  8 -  8) =    -14.08001  eV     1   -->   ?
     e(  9 -  9) =    -14.07981  eV     1   -->   ?
     e( 10 - 10) =    -14.07803  eV     1   --> A              
     e( 11 - 11) =     -0.02286  eV     1   --> B              
     e( 12 - 12) =      2.53200  eV     1   --> A              
     e( 13 - 13) =      6.45078  eV     1   --> B              
     e( 14 - 14) =      6.54988  eV     1   --> A              
     e( 15 - 15) =     10.36853  eV     1   --> A              
     e( 16 - 16) =     11.70922  eV     1   --> B              
     e( 17 - 17) =     16.07626  eV     1   --> B              
     e( 18 - 18) =     16.20465  eV     1   --> A              
     e( 19 - 19) =     17.07601  eV     1   --> A              
     e( 20 - 20) =     17.18895  eV     1   --> B              
     e( 21 - 21) =     22.51503  eV     1   --> B              
     e( 22 - 22) =     22.60988  eV     1   --> A              
     e( 23 - 23) =     23.49123  eV     1   --> B              
     e( 24 - 24) =     23.50053  eV     1   --> A              
     e( 25 - 25) =     26.77097  eV     1   --> B              
     e( 26 - 26) =     27.01446  eV     1   --> A              
     e( 27 - 27) =     27.10671  eV     1   --> B              
     e( 28 - 28) =     27.29486  eV     1   --> A              
     e( 29 - 29) =     29.19601  eV     1   --> B              
     e( 30 - 30) =     29.25140  eV     1   --> A              

 **************************************************************************

 **************************************************************************

                    xk=(   0.18000,   0.31177,   0.61237  )

     Band symmetry, C_2  (2)    point group:

     e(  1 -  1) =    -25.99612  eV     1   -->   ?
     e(  2 -  2) =    -25.99515  eV     1   -->   ?
     e(  3 -  3) =    -25.99383  eV     1   -->   ?
     e(  4 -  4) =    -25.99368  eV     1   -->   ?
     e(  5 -  5) =    -25.99251  eV     1   -->   ?
     e(  6 -  6) =    -14.08498  eV     1   --> B              
     e(  7 -  7) =    -14.08239  eV     1   -->   ?
     e(  8 -  8) =    -14.08002  eV     1   -->   ?
     e(  9 -  9) =    -14.07979  eV     1   -->   ?
     e( 10 - 10) =    -14.07806  eV     1   --> A              
     e( 11 - 11) =     -0.03517  eV     1   --> B              
     e( 12 - 12) =      2.50669  eV     1   --> A              
     e( 13 - 13) =      6.50445  eV     1   --> B              
     e( 14 - 14) =      6.61608  eV     1   --> A              
     e( 15 - 15) =     10.35818  eV     1   --> A              
     e( 16 - 16) =     11.69472  eV     1   --> B              
     e( 17 - 17) =     15.96937  eV     1   --> B              
     e( 18 - 18) =     16.10383  eV     1   --> A              
     e( 19 - 19) =     17.11788  eV     1   --> A              
     e( 20 - 20) =     17.23479  eV     1   --> B              
     e( 21 - 21) =     22.43060  eV     1   --> B              
     e( 22 - 22) =     22.54314  eV     1   --> A              
     e( 23 - 23) =     23.53628  eV     1   --> A              
     e( 24 - 24) =     23.54527  eV     1   --> B              
     e( 25 - 25) =     26.88552  eV     1   --> B              
     e( 26 - 26) =     26.95072  eV     1   --> A              
     e( 27 - 27) =     27.06680  eV     1   --> B              
     e( 28 - 28) =     27.40914  eV     1   --> A              
     e( 29 - 29) =     29.19078  eV     1   --> B              
     e( 30 - 30) =     29.23959  eV     1   --> A              

 **************************************************************************

 **************************************************************************

                    xk=(   0.17500,   0.30311,   0.61237  )

     Band symmetry, C_2  (2)    point group:

     e(  1 -  1) =    -25.99611  eV     1   -->   ?
     e(  2 -  2) =    -25.99517  eV     1   -->   ?
     e(  3 -  3) =    -25.99383  eV     1   -->   ?
     e(  4 -  4) =    -25.99366  eV     1   -->   ?
     e(  5 -  5) =    -25.99254  eV     1   -->   ?
     e(  6 -  6) =    -14.08494  eV     1   --> B              
     e(  7 -  7) =    -14.08243  eV     1   -->   ?
     e(  8 -  8) =    -14.08002  eV     1   -->   ?
     e(  9 -  9) =    -14.07976  eV     1   -->   ?
     e( 10 - 10) =    -14.07810  eV     1   --> A              
     e( 11 - 11) =     -0.04803  eV     1   --> B              
     e( 12 - 12) =      2.48066  eV     1   --> A              
     e( 13 - 13) =      6.56166  eV     1   --> B              
     e( 14 - 14) =      6.68596  eV     1   --> A              
     e( 15 - 15) =     10.34741  eV     1   --> A              
     e( 16 - 16) =     11.67964  eV     1   --> B              
     e( 17 - 17) =     15.85560  eV     1   --> B              
     e( 18 - 18) =     15.99587  eV     1   --> A              
     e( 19 - 19) =     17.16521  eV     1   --> A              
     e( 20 - 20) =     17.28578  eV     1   --> B              
     e( 21 - 21) =     22.34684  eV     1   --> B              
     e( 22 - 22) =     22.46995  eV     1   --> A              
     e( 23 - 23) =     23.58496  eV     1   --> A              
     e( 24 - 24) =     23.60489  eV     1   --> B              
     e( 25 - 25) =     26.79261  eV     1   --> B              
     e( 26 - 26) =     26.81788  eV     1   --> A              
     e( 27 - 27) =     27.23369  eV     1   --> B              
     e( 28 - 28) =     27.59112  eV     1   --> A              
     e( 29 - 29) =     29.18558  eV     1   --> B              
     e( 30 - 30) =     29.22917  eV     1   --> A              

 **************************************************************************

 **************************************************************************

                    xk=(   0.17000,   0.29445,   0.61237  )

     Band symmetry, C_2  (2)    point group:

     e(  1 -  1) =    -25.99610  eV     1   -->   ?
     e(  2 -  2) =    -25.99519  eV     1   -->   ?
     e(  3 -  3) =    -25.99383  eV     1   -->   ?
     e(  4 -  4) =    -25.99365  eV     1   -->   ?
     e(  5 -  5) =    -25.99257  eV     1   -->   ?
     e(  6 -  6) =    -14.08490  eV     1   --> B              
     e(  7 -  7) =    -14.08247  eV     1   --> A              
     e(  8 -  8) =    -14.08003  eV     1   -->   ?
     e(  9 -  9) =    -14.07974  eV     1   -->   ?
     e( 10 - 10) =    -14.07815  eV     1   --> A              
     e( 11 - 11) =     -0.06138  eV     1   --> B              
     e( 12 - 12) =      2.45406  eV     1   --> A              
     e( 13 - 13) =      6.62232  eV     1   --> B              
     e( 14 - 14) =      6.75937  eV     1   --> A              
     e( 15 - 15) =     10.33628  eV     1   --> A              
     e( 16 - 16) =     11.66404  eV     1   --> B              
     e( 17 - 17) =     15.73580  eV     1   --> B              
     e( 18 - 18) =     15.88174  eV     1   --> A              
     e( 19 - 19) =     17.21736  eV     1   --> A              
     e( 20 - 20) =     17.34145  eV     1   --> B              
     e( 21 - 21) =     22.26472  eV     1   --> B              
     e( 22 - 22) =     22.39335  eV     1   --> A              
     e( 23 - 23) =     23.64294  eV     1   --> A              
     e( 24 - 24) =     23.66846  eV     1   --> B              
     e( 25 - 25) =     26.66201  eV     1   --> B              
     e( 26 - 26) =     26.67163  eV     1   --> A              
     e( 27 - 27) =     27.43727  eV     1   --> B              
     e( 28 - 28) =     27.78367  eV     1   --> A              
     e( 29 - 29) =     29.18149  eV     1   --> B              
     e( 30 - 30) =     29.22231  eV     1   --> A              

 **************************************************************************

 **************************************************************************

                    xk=(   0.16500,   0.28579,   0.61237  )

     Band symmetry, C_2  (2)    point group:

     e(  1 -  1) =    -25.99609  eV     1   -->   ?
     e(  2 -  2) =    -25.99521  eV     1   -->   ?
     e(  3 -  3) =    -25.99383  eV     1   -->   ?
     e(  4 -  4) =    -25.99363  eV     1   -->   ?
     e(  5 -  5) =    -25.99259  eV     1   -->   ?
     e(  6 -  6) =    -14.08486  eV     1   --> B              
     e(  7 -  7) =    -14.08251  eV     1   --> A              
     e(  8 -  8) =    -14.08003  eV     1   -->   ?
     e(  9 -  9) =    -14.07971  eV     1   -->   ?
     e( 10 - 10) =    -14.07819  eV     1   --> A              
     e( 11 - 11) =     -0.07512  eV     1   --> B              
     e( 12 - 12) =      2.42703  eV     1   --> A              
     e( 13 - 13) =      6.68636  eV     1   --> B              
     e( 14 - 14) =      6.83611  eV     1   --> A              
     e( 15 - 15) =     10.32486  eV     1   --> A              
     e( 16 - 16) =     11.64800  eV     1   --> B              
     e( 17 - 17) =     15.61072  eV     1   --> B              
     e( 18 - 18) =     15.76226  eV     1   --> A              
     e( 19 - 19) =     17.27386  eV     1   --> A              
     e( 20 - 20) =     17.40144  eV     1   --> B              
     e( 21 - 21) =     22.18479  eV     1   --> B              
     e( 22 - 22) =     22.31544  eV     1   --> A              
     e( 23 - 23) =     23.70744  eV     1   --> A              
     e( 24 - 24) =     23.73467  eV     1   --> B              
     e( 25 - 25) =     26.52187  eV     1   --> A              
     e( 26 - 26) =     26.52641  eV     1   --> B              
     e( 27 - 27) =     27.64407  eV     1   --> B              
     e( 28 - 28) =     27.97449  eV     1   --> A              
     e( 29 - 29) =     29.18023  eV     1   --> B              
     e( 30 - 30) =     29.22233  eV     1   --> A              

 **************************************************************************

 **************************************************************************

                    xk=(   0.16000,   0.27713,   0.61237  )

     Band symmetry, C_2  (2)    point group:

     e(  1 -  1) =    -25.99609  eV     1   -->   ?
     e(  2 -  2) =    -25.99523  eV     1   -->   ?
     e(  3 -  3) =    -25.99384  eV     1   -->   ?
     e(  4 -  4) =    -25.99361  eV     1   -->   ?
     e(  5 -  5) =    -25.99262  eV     1   -->   ?
     e(  6 -  6) =    -14.08483  eV     1   --> B              
     e(  7 -  7) =    -14.08256  eV     1   --> A              
     e(  8 -  8) =    -14.08004  eV     1   -->   ?
     e(  9 -  9) =    -14.07968  eV     1   -->   ?
     e( 10 - 10) =    -14.07823  eV     1   --> A              
     e( 11 - 11) =     -0.08923  eV     1   --> B              
     e( 12 - 12) =      2.39973  eV     1   --> A              
     e( 13 - 13) =      6.75370  eV     1   --> B              
     e( 14 - 14) =      6.91604  eV     1   --> A              
     e( 15 - 15) =     10.31322  eV     1   --> A              
     e( 16 - 16) =     11.63160  eV     1   --> B              
     e( 17 - 17) =     15.48098  eV     1   --> B              
     e( 18 - 18) =     15.63808  eV     1   --> A              
     e( 19 - 19) =     17.33437  eV     1   --> A              
     e( 20 - 20) =     17.46543  eV     1   --> B              
     e( 21 - 21) =     22.10741  eV     1   --> B              
     e( 22 - 22) =     22.23763  eV     1   --> A              
     e( 23 - 23) =     23.77623  eV     1   --> A              
     e( 24 - 24) =     23.80231  eV     1   --> B              
     e( 25 - 25) =     26.37171  eV     1   --> A              
     e( 26 - 26) =     26.39009  eV     1   --> B              
     e( 27 - 27) =     27.84824  eV     1   --> B              
     e( 28 - 28) =     28.15620  eV     1   --> A              
     e( 29 - 29) =     29.18428  eV     1   --> B              
     e( 30 - 30) =     29.23433  eV     1   --> A              

 **************************************************************************

 **************************************************************************

                    xk=(   0.15500,   0.26847,   0.61237  )

     Band symmetry, C_2  (2)    point group:

     e(  1 -  1) =    -25.99608  eV     1   -->   ?
     e(  2 -  2) =    -25.99525  eV     1   -->   ?
     e(  3 -  3) =    -25.99384  eV     1   -->   ?
     e(  4 -  4) =    -25.99358  eV     1   -->   ?
     e(  5 -  5) =    -25.99265  eV     1   -->   ?
     e(  6 -  6) =    -14.08478  eV     1   --> B              
     e(  7 -  7) =    -14.08261  eV     1   --> A              
     e(  8 -  8) =    -14.08005  eV     1   -->   ?
     e(  9 -  9) =    -14.07965  eV     1   -->   ?
     e( 10 - 10) =    -14.07827  eV     1   --> A              
     e( 11 - 11) =     -0.10360  eV     1   --> B              
     e( 12 - 12) =      2.37228  eV     1   --> A              
     e( 13 - 13) =      6.82424  eV     1   --> B              
     e( 14 - 14) =      6.99901  eV     1   --> A              
     e( 15 - 15) =     10.30143  eV     1   --> A              
     e( 16 - 16) =     11.61492  eV     1   --> B              
     e( 17 - 17) =     15.34716  eV     1   --> B              
     e( 18 - 18) =     15.50975  eV     1   --> A              
     e( 19 - 19) =     17.39861  eV     1   --> A              
     e( 20 - 20) =     17.53317  eV     1   --> B              
     e( 21 - 21) =     22.03275  eV     1   --> B              
     e( 22 - 22) =     22.16084  eV     1   --> A              
     e( 23 - 23) =     23.84737  eV     1   --> A              
     e( 24 - 24) =     23.87009  eV     1   --> B              
     e( 25 - 25) =     26.22295  eV     1   --> A              
     e( 26 - 26) =     26.25493  eV     1   --> B              
     e( 27 - 27) =     28.04502  eV     1   --> B              
     e( 28 - 28) =     28.32012  eV     1   --> A              
     e( 29 - 29) =     29.19759  eV     1   --> B              
     e( 30 - 30) =     29.26612  eV     1   --> A              

 **************************************************************************

 **************************************************************************

                    xk=(   0.15000,   0.25981,   0.61237  )

     Band symmetry, C_2  (2)    point group:

     e(  1 -  1) =    -25.99607  eV     1   -->   ?
     e(  2 -  2) =    -25.99527  eV     1   -->   ?
     e(  3 -  3) =    -25.99384  eV     1   -->   ?
     e(  4 -  4) =    -25.99356  eV     1   -->   ?
     e(  5 -  5) =    -25.99268  eV     1   -->   ?
     e(  6 -  6) =    -14.08474  eV     1   --> B              
     e(  7 -  7) =    -14.08266  eV     1   --> A              
     e(  8 -  8) =    -14.08006  eV     1   -->   ?
     e(  9 -  9) =    -14.07962  eV     1   -->   ?
     e( 10 - 10) =    -14.07831  eV     1   --> A              
     e( 11 - 11) =     -0.11816  eV     1   --> B              
     e( 12 - 12) =      2.34480  eV     1   --> A              
     e( 13 - 13) =      6.89790  eV     1   --> B              
     e( 14 - 14) =      7.08485  eV     1   --> A              
     e( 15 - 15) =     10.28957  eV     1   --> A              
     e( 16 - 16) =     11.59804  eV     1   --> B              
     e( 17 - 17) =     15.20978  eV     1   --> B              
     e( 18 - 18) =     15.37777  eV     1   --> A              
     e( 19 - 19) =     17.46635  eV     1   --> A              
     e( 20 - 20) =     17.60445  eV     1   --> B              
     e( 21 - 21) =     21.96094  eV     1   --> B              
     e( 22 - 22) =     22.08572  eV     1   --> A              
     e( 23 - 23) =     23.91895  eV     1   --> A              
     e( 24 - 24) =     23.93657  eV     1   --> B              
     e( 25 - 25) =     26.07724  eV     1   --> A              
     e( 26 - 26) =     26.12262  eV     1   --> B              
     e( 27 - 27) =     28.22774  eV     1   --> B              
     e( 28 - 28) =     28.45552  eV     1   --> A              
     e( 29 - 29) =     29.22645  eV     1   --> B              
     e( 30 - 30) =     29.32789  eV     1   --> A              

 **************************************************************************

 **************************************************************************

                    xk=(   0.14500,   0.25115,   0.61237  )

     Band symmetry, C_2  (2)    point group:

     e(  1 -  1) =    -25.99606  eV     1   -->   ?
     e(  2 -  2) =    -25.99529  eV     1   -->   ?
     e(  3 -  3) =    -25.99384  eV     1   -->   ?
     e(  4 -  4) =    -25.99354  eV     1   -->   ?
     e(  5 -  5) =    -25.99271  eV     1   -->   ?
     e(  6 -  6) =    -14.08470  eV     1   --> B              
     e(  7 -  7) =    -14.08271  eV     1   --> A              
     e(  8 -  8) =    -14.08007  eV     1   -->   ?
     e(  9 -  9) =    -14.07959  eV     1   -->   ?
     e( 10 - 10) =    -14.07836  eV     1   --> A              
     e( 11 - 11) =     -0.13291  eV     1   --> B              
     e( 12 - 12) =      2.31741  eV     1   --> A              
     e( 13 - 13) =      6.97458  eV     1   --> B              
     e( 14 - 14) =      7.17342  eV     1   --> A              
     e( 15 - 15) =     10.27770  eV     1   --> A              
     e( 16 - 16) =     11.58103  eV     1   --> B              
     e( 17 - 17) =     15.06928  eV     1   --> B              
     e( 18 - 18) =     15.24256  eV     1   --> A              
     e( 19 - 19) =     17.53742  eV     1   --> A              
     e( 20 - 20) =     17.67907  eV     1   --> B              
     e( 21 - 21) =     21.89200  eV     1   --> B              
     e( 22 - 22) =     22.01264  eV     1   --> A              
     e( 23 - 23) =     23.98878  eV     1   --> A              
     e( 24 - 24) =     23.99991  eV     1   --> B              
     e( 25 - 25) =     25.93649  eV     1   --> A              
     e( 26 - 26) =     25.99502  eV     1   --> B              
     e( 27 - 27) =     28.38689  eV     1   --> B              
     e( 28 - 28) =     28.55350  eV     1   --> A              
     e( 29 - 29) =     29.28011  eV     1   --> B              
     e( 30 - 30) =     29.42799  eV     1   --> A              

 **************************************************************************

 **************************************************************************

                    xk=(   0.14000,   0.24249,   0.61237  )

     Band symmetry, C_2  (2)    point group:

     e(  1 -  1) =    -25.99605  eV     1   -->   ?
     e(  2 -  2) =    -25.99532  eV     1   -->   ?
     e(  3 -  3) =    -25.99385  eV     1   -->   ?
     e(  4 -  4) =    -25.99352  eV     1   -->   ?
     e(  5 -  5) =    -25.99274  eV     1   -->   ?
     e(  6 -  6) =    -14.08465  eV     1   --> B              
     e(  7 -  7) =    -14.08276  eV     1   --> A              
     e(  8 -  8) =    -14.08008  eV     1   -->   ?
     e(  9 -  9) =    -14.07956  eV     1   -->   ?
     e( 10 - 10) =    -14.07840  eV     1   --> A              
     e( 11 - 11) =     -0.14771  eV     1   --> B              
     e( 12 - 12) =      2.29022  eV     1   --> A              
     e( 13 - 13) =      7.05420  eV     1   --> B              
     e( 14 - 14) =      7.26459  eV     1   --> A              
     e( 15 - 15) =     10.26591  eV     1   --> A              
     e( 16 - 16) =     11.56396  eV     1   --> B              
     e( 17 - 17) =     14.92610  eV     1   --> B              
     e( 18 - 18) =     15.10451  eV     1   --> A              
     e( 19 - 19) =     17.61166  eV     1   --> A              
     e( 20 - 20) =     17.75689  eV     1   --> B              
     e( 21 - 21) =     21.82595  eV     1   --> B              
     e( 22 - 22) =     21.94189  eV     1   --> A              
     e( 23 - 23) =     24.05417  eV     1   -->   ?
     e( 24 - 24) =     24.05780  eV     1   -->   ?
     e( 25 - 25) =     25.80320  eV     1   --> A              
     e( 26 - 26) =     25.87454  eV     1   --> B              
     e( 27 - 27) =     28.51194  eV     1   --> B              
     e( 28 - 28) =     28.61347  eV     1   --> A              
     e( 29 - 29) =     29.36882  eV     1   --> B              
     e( 30 - 30) =     29.56623  eV     1   --> A              

 **************************************************************************

 **************************************************************************

                    xk=(   0.13500,   0.23383,   0.61237  )

     Band symmetry, C_2  (2)    point group:

     e(  1 -  1) =    -25.99604  eV     1   -->   ?
     e(  2 -  2) =    -25.99534  eV     1   -->   ?
     e(  3 -  3) =    -25.99385  eV     1   -->   ?
     e(  4 -  4) =    -25.99349  eV     1   -->   ?
     e(  5 -  5) =    -25.99277  eV     1   -->   ?
     e(  6 -  6) =    -14.08461  eV     1   --> B              
     e(  7 -  7) =    -14.08281  eV     1   --> A              
     e(  8 -  8) =    -14.08009  eV     1   -->   ?
     e(  9 -  9) =    -14.07952  eV     1   -->   ?
     e( 10 - 10) =    -14.07843  eV     1   --> A              
     e( 11 - 11) =     -0.16253  eV     1   --> B              
     e( 12 - 12) =      2.26332  eV     1   --> A              
     e( 13 - 13) =      7.13667  eV     1   --> B              
     e( 14 - 14) =      7.35820  eV     1   --> A              
     e( 15 - 15) =     10.25427  eV     1   --> A              
     e( 16 - 16) =     11.54690  eV     1   --> B              
     e( 17 - 17) =     14.78062  eV     1   --> B              
     e( 18 - 18) =     14.96395  eV     1   --> A              
     e( 19 - 19) =     17.68893  eV     1   --> A              
     e( 20 - 20) =     17.83774  eV     1   --> B              
     e( 21 - 21) =     21.76280  eV     1   --> B              
     e( 22 - 22) =     21.87366  eV     1   --> A              
     e( 23 - 23) =     24.10716  eV     1   -->   ?
     e( 24 - 24) =     24.11153  eV     1   -->   ?
     e( 25 - 25) =     25.68078  eV     1   --> A              
     e( 26 - 26) =     25.76426  eV     1   --> B              
     e( 27 - 27) =     28.59756  eV     1   --> B              
     e( 28 - 28) =     28.64326  eV     1   --> A              
     e( 29 - 29) =     29.49752  eV     1   --> B              
     e( 30 - 30) =     29.73344  eV     1   --> A              

 **************************************************************************

 **************************************************************************

                    xk=(   0.13000,   0.22517,   0.61237  )

     Band symmetry, C_2  (2)    point group:

     e(  1 -  1) =    -25.99603  eV     1   -->   ?
     e(  2 -  2) =    -25.99537  eV     1   -->   ?
     e(  3 -  3) =    -25.99386  eV     1   -->   ?
     e(  4 -  4) =    -25.99347  eV     1   -->   ?
     e(  5 -  5) =    -25.99279  eV     1   -->   ?
     e(  6 -  6) =    -14.08457  eV     1   --> B              
     e(  7 -  7) =    -14.08286  eV     1   --> A              
     e(  8 -  8) =    -14.08011  eV     1   -->   ?
     e(  9 -  9) =    -14.07949  eV     1   -->   ?
     e( 10 - 10) =    -14.07847  eV     1   --> A              
     e( 11 - 11) =     -0.17739  eV     1   --> B              
     e( 12 - 12) =      2.23680  eV     1   --> A              
     e( 13 - 13) =      7.22187  eV     1   --> B              
     e( 14 - 14) =      7.45413  eV     1   --> A              
     e( 15 - 15) =     10.24287  eV     1   --> A              
     e( 16 - 16) =     11.52992  eV     1   --> B              
     e( 17 - 17) =     14.63319  eV     1   --> B              
     e( 18 - 18) =     14.82121  eV     1   --> A              
     e( 19 - 19) =     17.76909  eV     1   --> A              
     e( 20 - 20) =     17.92149  eV     1   --> B              
     e( 21 - 21) =     21.70250  eV     1   --> B              
     e( 22 - 22) =     21.80805  eV     1   --> A              
     e( 23 - 23) =     24.14408  eV     1   --> B              
     e( 24 - 24) =     24.15609  eV     1   --> A              
     e( 25 - 25) =     25.57387  eV     1   --> A              
     e( 26 - 26) =     25.66814  eV     1   --> B              
     e( 27 - 27) =     28.64808  eV     1   --> B              
     e( 28 - 28) =     28.65265  eV     1   --> A              
     e( 29 - 29) =     29.66133  eV     1   --> B              
     e( 30 - 30) =     29.91705  eV     1   --> A              

 **************************************************************************

 **************************************************************************

                    xk=(   0.12500,   0.21651,   0.61237  )

     Band symmetry, C_2  (2)    point group:

     e(  1 -  1) =    -25.99602  eV     1   -->   ?
     e(  2 -  2) =    -25.99539  eV     1   -->   ?
     e(  3 -  3) =    -25.99386  eV     1   -->   ?
     e(  4 -  4) =    -25.99345  eV     1   -->   ?
     e(  5 -  5) =    -25.99282  eV     1   -->   ?
     e(  6 -  6) =    -14.08452  eV     1   --> B              
     e(  7 -  7) =    -14.08292  eV     1   --> A              
     e(  8 -  8) =    -14.08013  eV     1   -->   ?
     e(  9 -  9) =    -14.07946  eV     1   -->   ?
     e( 10 - 10) =    -14.07851  eV     1   --> A              
     e( 11 - 11) =     -0.19211  eV     1   --> B              
     e( 12 - 12) =      2.21075  eV     1   --> A              
     e( 13 - 13) =      7.30973  eV     1   --> B              
     e( 14 - 14) =      7.55224  eV     1   --> A              
     e( 15 - 15) =     10.23180  eV     1   --> A              
     e( 16 - 16) =     11.51307  eV     1   --> B              
     e( 17 - 17) =     14.48416  eV     1   --> B              
     e( 18 - 18) =     14.67657  eV     1   --> A              
     e( 19 - 19) =     17.85201  eV     1   --> A              
     e( 20 - 20) =     18.00800  eV     1   --> B              
     e( 21 - 21) =     21.64503  eV     1   --> B              
     e( 22 - 22) =     21.74516  eV     1   --> A              
     e( 23 - 23) =     24.16397  eV     1   --> B              
     e( 24 - 24) =     24.18189  eV     1   --> A              
     e( 25 - 25) =     25.48840  eV     1   --> A              
     e( 26 - 26) =     25.59086  eV     1   --> B              
     e( 27 - 27) =     28.64914  eV     1   --> A              
     e( 28 - 28) =     28.67319  eV     1   --> B              
     e( 29 - 29) =     29.84976  eV     1   --> B              
     e( 30 - 30) =     30.10208  eV     1   --> A              

 **************************************************************************

 **************************************************************************

                    xk=(   0.12000,   0.20785,   0.61237  )

     Band symmetry, C_2  (2)    point group:

     e(  1 -  1) =    -25.99601  eV     1   -->   ?
     e(  2 -  2) =    -25.99542  eV     1   -->   ?
     e(  3 -  3) =    -25.99387  eV     1   -->   ?
     e(  4 -  4) =    -25.99342  eV     1   -->   ?
     e(  5 -  5) =    -25.99284  eV     1   -->   ?
     e(  6 -  6) =    -14.08448  eV     1   --> B              
     e(  7 -  7) =    -14.08297  eV     1   --> A              
     e(  8 -  8) =    -14.08014  eV     1   -->   ?
     e(  9 -  9) =    -14.07943  eV     1   -->   ?
     e( 10 - 10) =    -14.07854  eV     1   --> A              
     e( 11 - 11) =     -0.20669  eV     1   --> B              
     e( 12 - 12) =      2.18525  eV     1   --> A              
     e( 13 - 13) =      7.40014  eV     1   --> B              
     e( 14 - 14) =      7.65237  eV     1   --> A              
     e( 15 - 15) =     10.22115  eV     1   --> A              
     e( 16 - 16) =     11.49642  eV     1   --> B              
     e( 17 - 17) =     14.33383  eV     1   --> B              
     e( 18 - 18) =     14.53030  eV     1   --> A              
     e( 19 - 19) =     17.93758  eV     1   --> A              
     e( 20 - 20) =     18.09716  eV     1   --> B              
     e( 21 - 21) =     21.59034  eV     1   --> B              
     e( 22 - 22) =     21.68502  eV     1   --> A              
     e( 23 - 23) =     24.16224  eV     1   --> B              
     e( 24 - 24) =     24.18268  eV     1   --> A              
     e( 25 - 25) =     25.43052  eV     1   --> A              
     e( 26 - 26) =     25.53702  eV     1   --> B              
     e( 27 - 27) =     28.63751  eV     1   --> A              
     e( 28 - 28) =     28.68173  eV     1   --> B              
     e( 29 - 29) =     30.05264  eV     1   --> B              
     e( 30 - 30) =     30.25556  eV     1   --> A              

 **************************************************************************

 **************************************************************************

                    xk=(   0.11500,   0.19919,   0.61237  )

     Band symmetry, C_2  (2)    point group:

     e(  1 -  1) =    -25.99599  eV     1   -->   ?
     e(  2 -  2) =    -25.99544  eV     1   -->   ?
     e(  3 -  3) =    -25.99387  eV     1   -->   ?
     e(  4 -  4) =    -25.99340  eV     1   -->   ?
     e(  5 -  5) =    -25.99286  eV     1   -->   ?
     e(  6 -  6) =    -14.08443  eV     1   --> B              
     e(  7 -  7) =    -14.08303  eV     1   --> A              
     e(  8 -  8) =    -14.08016  eV     1   -->   ?
     e(  9 -  9) =    -14.07939  eV     1   -->   ?
     e( 10 - 10) =    -14.07857  eV     1   --> A              
     e( 11 - 11) =     -0.22095  eV     1   --> B              
     e( 12 - 12) =      2.16036  eV     1   --> A              
     e( 13 - 13) =      7.49300  eV     1   --> B              
     e( 14 - 14) =      7.75440  eV     1   --> A              
     e( 15 - 15) =     10.21102  eV     1   --> A              
     e( 16 - 16) =     11.48003  eV     1   --> B              
     e( 17 - 17) =     14.18251  eV     1   --> B              
     e( 18 - 18) =     14.38265  eV     1   --> A              
     e( 19 - 19) =     18.02569  eV     1   --> A              
     e( 20 - 20) =     18.18886  eV     1   --> B              
     e( 21 - 21) =     21.53842  eV     1   --> B              
     e( 22 - 22) =     21.62767  eV     1   --> A              
     e( 23 - 23) =     24.13565  eV     1   --> B              
     e( 24 - 24) =     24.15408  eV     1   --> A              
     e( 25 - 25) =     25.40459  eV     1   --> A              
     e( 26 - 26) =     25.50989  eV     1   --> B              
     e( 27 - 27) =     28.62073  eV     1   --> A              
     e( 28 - 28) =     28.67969  eV     1   --> B              
     e( 29 - 29) =     30.26171  eV     1   --> B              
     e( 30 - 30) =     30.31095  eV     1   --> A              

 **************************************************************************

 **************************************************************************

                    xk=(   0.11000,   0.19053,   0.61237  )

     Band symmetry, C_2  (2)    point group:

     e(  1 -  1) =    -25.99598  eV     1   -->   ?
     e(  2 -  2) =    -25.99547  eV     1   -->   ?
     e(  3 -  3) =    -25.99388  eV     1   -->   ?
     e(  4 -  4) =    -25.99337  eV     1   -->   ?
     e(  5 -  5) =    -25.99288  eV     1   -->   ?
     e(  6 -  6) =    -14.08438  eV     1   --> B              
     e(  7 -  7) =    -14.08308  eV     1   --> A              
     e(  8 -  8) =    -14.08018  eV     1   -->   ?
     e(  9 -  9) =    -14.07935  eV     1   -->   ?
     e( 10 - 10) =    -14.07860  eV     1   --> A              
     e( 11 - 11) =     -0.23507  eV     1   --> B              
     e( 12 - 12) =      2.13616  eV     1   --> A              
     e( 13 - 13) =      7.58818  eV     1   --> B              
     e( 14 - 14) =      7.85816  eV     1   --> A              
     e( 15 - 15) =     10.20152  eV     1   --> A              
     e( 16 - 16) =     11.46394  eV     1   --> B              
     e( 17 - 17) =     14.03046  eV     1   --> B              
     e( 18 - 18) =     14.23384  eV     1   --> A              
     e( 19 - 19) =     18.11620  eV     1   --> A              
     e( 20 - 20) =     18.28296  eV     1   --> B              
     e( 21 - 21) =     21.48920  eV     1   --> B              
     e( 22 - 22) =     21.57313  eV     1   --> A              
     e( 23 - 23) =     24.08367  eV     1   --> B              
     e( 24 - 24) =     24.09577  eV     1   --> A              
     e( 25 - 25) =     25.41084  eV     1   --> A              
     e( 26 - 26) =     25.51004  eV     1   --> B              
     e( 27 - 27) =     28.60056  eV     1   --> A              
     e( 28 - 28) =     28.67075  eV     1   --> B              
     e( 29 - 29) =     30.29296  eV     1   --> A              
     e( 30 - 30) =     30.46892  eV     1   --> B              

 **************************************************************************

 **************************************************************************

                    xk=(   0.10500,   0.18187,   0.61237  )

     Band symmetry, C_2  (2)    point group:

     e(  1 -  1) =    -25.99597  eV     1   -->   ?
     e(  2 -  2) =    -25.99549  eV     1   -->   ?
     e(  3 -  3) =    -25.99389  eV     1   -->   ?
     e(  4 -  4) =    -25.99335  eV     1   -->   ?
     e(  5 -  5) =    -25.99290  eV     1   -->   ?
     e(  6 -  6) =    -14.08434  eV     1   --> B              
     e(  7 -  7) =    -14.08314  eV     1   --> A              
     e(  8 -  8) =    -14.08020  eV     1   -->   ?
     e(  9 -  9) =    -14.07932  eV     1   -->   ?
     e( 10 - 10) =    -14.07863  eV     1   --> A              
     e( 11 - 11) =     -0.24890  eV     1   --> B              
     e( 12 - 12) =      2.11269  eV     1   --> A              
     e( 13 - 13) =      7.68557  eV     1   --> B              
     e( 14 - 14) =      7.96347  eV     1   --> A              
     e( 15 - 15) =     10.19279  eV     1   --> A              
     e( 16 - 16) =     11.44820  eV     1   --> B              
     e( 17 - 17) =     13.87795  eV     1   --> B              
     e( 18 - 18) =     14.08410  eV     1   --> A              
     e( 19 - 19) =     18.20899  eV     1   --> A              
     e( 20 - 20) =     18.37935  eV     1   --> B              
     e( 21 - 21) =     21.44266  eV     1   --> B              
     e( 22 - 22) =     21.52140  eV     1   --> A              
     e( 23 - 23) =     24.00858  eV     1   -->   ?
     e( 24 - 24) =     24.01160  eV     1   -->   ?
     e( 25 - 25) =     25.44541  eV     1   --> A              
     e( 26 - 26) =     25.53522  eV     1   --> B              
     e( 27 - 27) =     28.57814  eV     1   --> A              
     e( 28 - 28) =     28.65710  eV     1   --> B              
     e( 29 - 29) =     30.25500  eV     1   --> A              
     e( 30 - 30) =     30.66218  eV     1   --> B              

 **************************************************************************

 **************************************************************************

                    xk=(   0.10000,   0.17321,   0.61237  )

     Band symmetry, C_2  (2)    point group:

     e(  1 -  1) =    -25.99596  eV     1   -->   ?
     e(  2 -  2) =    -25.99552  eV     1   -->   ?
     e(  3 -  3) =    -25.99390  eV     1   -->   ?
     e(  4 -  4) =    -25.99333  eV     1   -->   ?
     e(  5 -  5) =    -25.99292  eV     1   -->   ?
     e(  6 -  6) =    -14.08430  eV     1   --> B              
     e(  7 -  7) =    -14.08319  eV     1   --> A              
     e(  8 -  8) =    -14.08022  eV     1   -->   ?
     e(  9 -  9) =    -14.07928  eV     1   -->   ?
     e( 10 - 10) =    -14.07866  eV     1   --> A              
     e( 11 - 11) =     -0.26240  eV     1   --> B              
     e( 12 - 12) =      2.09002  eV     1   --> A              
     e( 13 - 13) =      7.78506  eV     1   --> B              
     e( 14 - 14) =      8.07017  eV     1   --> A              
     e( 15 - 15) =     10.18495  eV     1   --> A              
     e( 16 - 16) =     11.43285  eV     1   --> B              
     e( 17 - 17) =     13.72525  eV     1   --> B              
     e( 18 - 18) =     13.93362  eV     1   --> A              
     e( 19 - 19) =     18.30393  eV     1   --> A              
     e( 20 - 20) =     18.47792  eV     1   --> B              
     e( 21 - 21) =     21.39877  eV     1   --> B              
     e( 22 - 22) =     21.47250  eV     1   --> A              
     e( 23 - 23) =     23.90742  eV     1   --> A              
     e( 24 - 24) =     23.91445  eV     1   --> B              
     e( 25 - 25) =     25.50242  eV     1   --> A              
     e( 26 - 26) =     25.58137  eV     1   --> B              
     e( 27 - 27) =     28.55418  eV     1   --> A              
     e( 28 - 28) =     28.64008  eV     1   --> B              
     e( 29 - 29) =     30.21142  eV     1   --> A              
     e( 30 - 30) =     30.81033  eV     1   --> B              

 **************************************************************************

 **************************************************************************

                    xk=(   0.09500,   0.16454,   0.61237  )

     Band symmetry, C_2  (2)    point group:

     e(  1 -  1) =    -25.99595  eV     1   -->   ?
     e(  2 -  2) =    -25.99554  eV     1   -->   ?
     e(  3 -  3) =    -25.99391  eV     1   -->   ?
     e(  4 -  4) =    -25.99330  eV     1   -->   ?
     e(  5 -  5) =    -25.99294  eV     1   -->   ?
     e(  6 -  6) =    -14.08426  eV     1   --> B              
     e(  7 -  7) =    -14.08324  eV     1   --> A              
     e(  8 -  8) =    -14.08024  eV     1   -->   ?
     e(  9 -  9) =    -14.07925  eV     1   -->   ?
     e( 10 - 10) =    -14.07868  eV     1   --> A              
     e( 11 - 11) =     -0.27541  eV     1   --> B              
     e( 12 - 12) =      2.06819  eV     1   --> A              
     e( 13 - 13) =      7.88650  eV     1   --> B              
     e( 14 - 14) =      8.17804  eV     1   --> A              
     e( 15 - 15) =     10.17818  eV     1   --> A              
     e( 16 - 16) =     11.41796  eV     1   --> B              
     e( 17 - 17) =     13.57264  eV     1   --> B              
     e( 18 - 18) =     13.78259  eV     1   --> A              
     e( 19 - 19) =     18.40089  eV     1   --> A              
     e( 20 - 20) =     18.57854  eV     1   --> B              
     e( 21 - 21) =     21.35754  eV     1   --> B              
     e( 22 - 22) =     21.42645  eV     1   --> A              
     e( 23 - 23) =     23.78890  eV     1   --> A              
     e( 24 - 24) =     23.80570  eV     1   --> B              
     e( 25 - 25) =     25.57624  eV     1   --> A              
     e( 26 - 26) =     25.64418  eV     1   --> B              
     e( 27 - 27) =     28.52917  eV     1   --> A              
     e( 28 - 28) =     28.62058  eV     1   --> B              
     e( 29 - 29) =     30.16581  eV     1   --> A              
     e( 30 - 30) =     30.85441  eV     1   --> B              

 **************************************************************************

 **************************************************************************

                    xk=(   0.09000,   0.15588,   0.61237  )

     Band symmetry, C_2  (2)    point group:

     e(  1 -  1) =    -25.99595  eV     1   -->   ?
     e(  2 -  2) =    -25.99557  eV     1   -->   ?
     e(  3 -  3) =    -25.99392  eV     1   -->   ?
     e(  4 -  4) =    -25.99328  eV     1   -->   ?
     e(  5 -  5) =    -25.99295  eV     1   -->   ?
     e(  6 -  6) =    -14.08422  eV     1   --> B              
     e(  7 -  7) =    -14.08329  eV     1   --> A              
     e(  8 -  8) =    -14.08026  eV     1   -->   ?
     e(  9 -  9) =    -14.07922  eV     1   -->   ?
     e( 10 - 10) =    -14.07870  eV     1   --> A              
     e( 11 - 11) =     -0.28809  eV     1   --> B              
     e( 12 - 12) =      2.04725  eV     1   --> A              
     e( 13 - 13) =      7.98976  eV     1   --> B              
     e( 14 - 14) =      8.28682  eV     1   --> A              
     e( 15 - 15) =     10.17268  eV     1   --> A              
     e( 16 - 16) =     11.40354  eV     1   --> B              
     e( 17 - 17) =     13.42035  eV     1   --> B              
     e( 18 - 18) =     13.63120  eV     1   --> A              
     e( 19 - 19) =     18.49971  eV     1   --> A              
     e( 20 - 20) =     18.68106  eV     1   --> B              
     e( 21 - 21) =     21.31892  eV     1   --> B              
     e( 22 - 22) =     21.38325  eV     1   --> A              
     e( 23 - 23) =     23.66052  eV     1   --> A              
     e( 24 - 24) =     23.68616  eV     1   --> B              
     e( 25 - 25) =     25.66229  eV     1   --> A              
     e( 26 - 26) =     25.71972  eV     1   --> B              
     e( 27 - 27) =     28.50334  eV     1   --> A              
     e( 28 - 28) =     28.59892  eV     1   --> B              
     e( 29 - 29) =     30.11917  eV     1   --> A              
     e( 30 - 30) =     30.82895  eV     1   --> B              

 **************************************************************************

 **************************************************************************

                    xk=(   0.08500,   0.14722,   0.61237  )

     Band symmetry, C_2  (2)    point group:

     e(  1 -  1) =    -25.99594  eV     1   -->   ?
     e(  2 -  2) =    -25.99559  eV     1   -->   ?
     e(  3 -  3) =    -25.99393  eV     1   -->   ?
     e(  4 -  4) =    -25.99326  eV     1   -->   ?
     e(  5 -  5) =    -25.99296  eV     1   -->   ?
     e(  6 -  6) =    -14.08418  eV     1   --> B              
     e(  7 -  7) =    -14.08334  eV     1   -->   ?
     e(  8 -  8) =    -14.08028  eV     1   -->   ?
     e(  9 -  9) =    -14.07918  eV     1   -->   ?
     e( 10 - 10) =    -14.07872  eV     1   --> A              
     e( 11 - 11) =     -0.30025  eV     1   --> B              
     e( 12 - 12) =      2.02723  eV     1   --> A              
     e( 13 - 13) =      8.09466  eV     1   --> B              
     e( 14 - 14) =      8.39625  eV     1   --> A              
     e( 15 - 15) =     10.16869  eV     1   --> A              
     e( 16 - 16) =     11.38962  eV     1   --> B              
     e( 17 - 17) =     13.26868  eV     1   --> B              
     e( 18 - 18) =     13.47963  eV     1   --> A              
     e( 19 - 19) =     18.60022  eV     1   --> A              
     e( 20 - 20) =     18.78535  eV     1   --> B              
     e( 21 - 21) =     21.28292  eV     1   --> B              
     e( 22 - 22) =     21.34293  eV     1   --> A              
     e( 23 - 23) =     23.52555  eV     1   --> A              
     e( 24 - 24) =     23.55889  eV     1   --> B              
     e( 25 - 25) =     25.75735  eV     1   --> A              
     e( 26 - 26) =     25.80505  eV     1   --> B              
     e( 27 - 27) =     28.47688  eV     1   --> A              
     e( 28 - 28) =     28.57544  eV     1   --> B              
     e( 29 - 29) =     30.07179  eV     1   --> A              
     e( 30 - 30) =     30.78426  eV     1   --> B              

 **************************************************************************

 **************************************************************************

                    xk=(   0.08000,   0.13856,   0.61237  )

     Band symmetry, C_2  (2)    point group:

     e(  1 -  1) =    -25.99593  eV     1   -->   ?
     e(  2 -  2) =    -25.99562  eV     1   -->   ?
     e(  3 -  3) =    -25.99395  eV     1   -->   ?
     e(  4 -  4) =    -25.99324  eV     1   -->   ?
     e(  5 -  5) =    -25.99298  eV     1   -->   ?
     e(  6 -  6) =    -14.08415  eV     1   -->   ?
     e(  7 -  7) =    -14.08340  eV     1   -->   ?
     e(  8 -  8) =    -14.08031  eV     1   -->   ?
     e(  9 -  9) =    -14.07916  eV     1   -->   ?
     e( 10 - 10) =    -14.07874  eV     1   --> A              
     e( 11 - 11) =     -0.31199  eV     1   --> B              
     e( 12 - 12) =      2.00819  eV     1   --> A              
     e( 13 - 13) =      8.20102  eV     1   --> B              
     e( 14 - 14) =      8.50595  eV     1   --> A              
     e( 15 - 15) =     10.16650  eV     1   --> A              
     e( 16 - 16) =     11.37623  eV     1   --> B              
     e( 17 - 17) =     13.11789  eV     1   --> B              
     e( 18 - 18) =     13.32804  eV     1   --> A              
     e( 19 - 19) =     18.70224  eV     1   --> A              
     e( 20 - 20) =     18.89123  eV     1   --> B              
     e( 21 - 21) =     21.24956  eV     1   --> B              
     e( 22 - 22) =     21.30552  eV     1   --> A              
     e( 23 - 23) =     23.38631  eV     1   --> A              
     e( 24 - 24) =     23.42618  eV     1   --> B              
     e( 25 - 25) =     25.85904  eV     1   --> A              
     e( 26 - 26) =     25.89783  eV     1   --> B              
     e( 27 - 27) =     28.44982  eV     1   --> A              
     e( 28 - 28) =     28.55022  eV     1   --> B              
     e( 29 - 29) =     30.02359  eV     1   --> A              
     e( 30 - 30) =     30.73092  eV     1   --> B              

 **************************************************************************

 **************************************************************************

                    xk=(   0.07500,   0.12990,   0.61237  )

     Band symmetry, C_2  (2)    point group:

     e(  1 -  1) =    -25.99592  eV     1   -->   ?
     e(  2 -  2) =    -25.99564  eV     1   -->   ?
     e(  3 -  3) =    -25.99396  eV     1   -->   ?
     e(  4 -  4) =    -25.99322  eV     1   -->   ?
     e(  5 -  5) =    -25.99299  eV     1   -->   ?
     e(  6 -  6) =    -14.08411  eV     1   -->   ?
     e(  7 -  7) =    -14.08344  eV     1   -->   ?
     e(  8 -  8) =    -14.08033  eV     1   -->   ?
     e(  9 -  9) =    -14.07913  eV     1   -->   ?
     e( 10 - 10) =    -14.07876  eV     1   --> A              
     e( 11 - 11) =     -0.32311  eV     1   --> B              
     e( 12 - 12) =      1.99015  eV     1   --> A              
     e( 13 - 13) =      8.30863  eV     1   --> B              
     e( 14 - 14) =      8.61550  eV     1   --> A              
     e( 15 - 15) =     10.16649  eV     1   --> A              
     e( 16 - 16) =     11.36341  eV     1   --> B              
     e( 17 - 17) =     12.96832  eV     1   --> B              
     e( 18 - 18) =     13.17660  eV     1   --> A              
     e( 19 - 19) =     18.80554  eV     1   --> A              
     e( 20 - 20) =     18.99854  eV     1   --> B              
     e( 21 - 21) =     21.21889  eV     1   --> B              
     e( 22 - 22) =     21.27109  eV     1   --> A              
     e( 23 - 23) =     23.24447  eV     1   --> A              
     e( 24 - 24) =     23.28975  eV     1   --> B              
     e( 25 - 25) =     25.96573  eV     1   --> A              
     e( 26 - 26) =     25.99643  eV     1   --> B              
     e( 27 - 27) =     28.42215  eV     1   --> A              
     e( 28 - 28) =     28.52326  eV     1   --> B              
     e( 29 - 29) =     29.97438  eV     1   --> A              
     e( 30 - 30) =     30.67010  eV     1   --> B              

 **************************************************************************

 **************************************************************************

                    xk=(   0.07000,   0.12124,   0.61237  )

     Band symmetry, C_2  (2)    point group:

     e(  1 -  1) =    -25.99592  eV     1   -->   ?
     e(  2 -  2) =    -25.99566  eV     1   -->   ?
     e(  3 -  3) =    -25.99397  eV     1   -->   ?
     e(  4 -  4) =    -25.99320  eV     1   -->   ?
     e(  5 -  5) =    -25.99300  eV     1   -->   ?
     e(  6 -  6) =    -14.08408  eV     1   -->   ?
     e(  7 -  7) =    -14.08349  eV     1   -->   ?
     e(  8 -  8) =    -14.08035  eV     1   -->   ?
     e(  9 -  9) =    -14.07910  eV     1   -->   ?
     e( 10 - 10) =    -14.07877  eV     1   --> A              
     e( 11 - 11) =     -0.33370  eV     1   --> B              
     e( 12 - 12) =      1.97315  eV     1   --> A              
     e( 13 - 13) =      8.41723  eV     1   --> B              
     e( 14 - 14) =      8.72436  eV     1   --> A              
     e( 15 - 15) =     10.16913  eV     1   --> A              
     e( 16 - 16) =     11.35115  eV     1   --> B              
     e( 17 - 17) =     12.82027  eV     1   --> B              
     e( 18 - 18) =     13.02547  eV     1   --> A              
     e( 19 - 19) =     18.90987  eV     1   --> A              
     e( 20 - 20) =     19.10703  eV     1   --> B              
     e( 21 - 21) =     21.19093  eV     1   --> B              
     e( 22 - 22) =     21.23969  eV     1   --> A              
     e( 23 - 23) =     23.10125  eV     1   --> A              
     e( 24 - 24) =     23.15088  eV     1   --> B              
     e( 25 - 25) =     26.07619  eV     1   --> A              
     e( 26 - 26) =     26.09954  eV     1   --> B              
     e( 27 - 27) =     28.39372  eV     1   --> A              
     e( 28 - 28) =     28.49440  eV     1   --> B              
     e( 29 - 29) =     29.92388  eV     1   --> A              
     e( 30 - 30) =     30.60109  eV     1   --> B              

 **************************************************************************

 **************************************************************************

                    xk=(   0.06500,   0.11258,   0.61237  )

     Band symmetry, C_2  (2)    point group:

     e(  1 -  1) =    -25.99591  eV     1   -->   ?
     e(  2 -  2) =    -25.99569  eV     1   -->   ?
     e(  3 -  3) =    -25.99398  eV     1   -->   ?
     e(  4 -  4) =    -25.99318  eV     1   -->   ?
     e(  5 -  5) =    -25.99300  eV     1   -->   ?
     e(  6 -  6) =    -14.08405  eV     1   -->   ?
     e(  7 -  7) =    -14.08354  eV     1   -->   ?
     e(  8 -  8) =    -14.08037  eV     1   -->   ?
     e(  9 -  9) =    -14.07907  eV     1   -->   ?
     e( 10 - 10) =    -14.07879  eV     1   --> A              
     e( 11 - 11) =     -0.34368  eV     1   --> B              
     e( 12 - 12) =      1.95720  eV     1   --> A              
     e( 13 - 13) =      8.52654  eV     1   --> B              
     e( 14 - 14) =      8.83185  eV     1   --> A              
     e( 15 - 15) =     10.17502  eV     1   --> A              
     e( 16 - 16) =     11.33946  eV     1   --> B              
     e( 17 - 17) =     12.67416  eV     1   --> B              
     e( 18 - 18) =     12.87484  eV     1   --> A              
     e( 19 - 19) =     19.01491  eV     1   --> A              
[...]
     e( 18 - 18) =     16.51895  eV     1   --> A'             
     e( 19 - 19) =     17.63804  eV     1   --> A'             
     e( 20 - 20) =     18.19218  eV     1   --> A'             
     e( 21 - 21) =     19.22028  eV     1   --> A''            
     e( 22 - 22) =     21.64366  eV     1   --> A'             
     e( 23 - 23) =     24.91307  eV     1   --> A'             
     e( 24 - 24) =     26.44611  eV     1   --> A''            
     e( 25 - 25) =     26.53239  eV     1   --> A'             
     e( 26 - 26) =     27.24326  eV     1   --> A''            
     e( 27 - 27) =     27.27651  eV     1   --> A''            
     e( 28 - 28) =     27.48376  eV     1   --> A'             
     e( 29 - 29) =     28.96741  eV     1   --> A'             
     e( 30 - 30) =     29.31477  eV     1   --> A'             

 **************************************************************************

 **************************************************************************

                    xk=(   0.31500,   0.18187,   0.51439  )

     Band symmetry, C_s (m)     point group:

     e(  1 -  1) =    -25.99611  eV     1   -->   ?
     e(  2 -  2) =    -25.99520  eV     1   -->   ?
     e(  3 -  3) =    -25.99378  eV     1   -->   ?
     e(  4 -  4) =    -25.99335  eV     1   -->   ?
     e(  5 -  5) =    -25.99297  eV     1   -->   ?
     e(  6 -  6) =    -14.08464  eV     1   --> A'             
     e(  7 -  7) =    -14.08269  eV     1   -->   ?
     e(  8 -  8) =    -14.07999  eV     1   -->   ?
     e(  9 -  9) =    -14.07935  eV     1   -->   ?
     e( 10 - 10) =    -14.07869  eV     1   -->   ?
     e( 11 - 11) =     -0.14928  eV     1   --> A'             
     e( 12 - 12) =      2.42250  eV     1   --> A'             
     e( 13 - 13) =      6.21085  eV     1   --> A'             
     e( 14 - 14) =      8.47798  eV     1   --> A''            
     e( 15 - 15) =      8.98073  eV     1   --> A'             
     e( 16 - 16) =     12.95057  eV     1   --> A''            
     e( 17 - 17) =     13.54729  eV     1   --> A'             
     e( 18 - 18) =     16.60754  eV     1   --> A'             
     e( 19 - 19) =     17.36571  eV     1   --> A'             
     e( 20 - 20) =     18.33573  eV     1   --> A'             
     e( 21 - 21) =     19.36468  eV     1   --> A''            
     e( 22 - 22) =     21.76939  eV     1   --> A'             
     e( 23 - 23) =     25.17685  eV     1   --> A'             
     e( 24 - 24) =     26.13598  eV     1   --> A''            
     e( 25 - 25) =     26.46560  eV     1   --> A'             
     e( 26 - 26) =     27.16060  eV     1   --> A''            
     e( 27 - 27) =     27.18264  eV     1   --> A''            
     e( 28 - 28) =     27.48415  eV     1   --> A'             
     e( 29 - 29) =     28.76106  eV     1   --> A'             
     e( 30 - 30) =     29.65734  eV     1   --> A'             

 **************************************************************************

 **************************************************************************

                    xk=(   0.32250,   0.18620,   0.52664  )

     Band symmetry, C_s (m)     point group:

     e(  1 -  1) =    -25.99614  eV     1   -->   ?
     e(  2 -  2) =    -25.99516  eV     1   -->   ?
     e(  3 -  3) =    -25.99386  eV     1   -->   ?
     e(  4 -  4) =    -25.99329  eV     1   -->   ?
     e(  5 -  5) =    -25.99292  eV     1   -->   ?
     e(  6 -  6) =    -14.08477  eV     1   --> A'             
     e(  7 -  7) =    -14.08258  eV     1   -->   ?
     e(  8 -  8) =    -14.08010  eV     1   --> A'             
     e(  9 -  9) =    -14.07926  eV     1   -->   ?
     e( 10 - 10) =    -14.07862  eV     1   -->   ?
     e( 11 - 11) =     -0.11309  eV     1   --> A'             
     e( 12 - 12) =      2.42680  eV     1   --> A'             
     e( 13 - 13) =      6.14005  eV     1   --> A'             
     e( 14 - 14) =      8.39122  eV     1   --> A''            
     e( 15 - 15) =      8.88009  eV     1   --> A'             
     e( 16 - 16) =     13.09806  eV     1   --> A''            
     e( 17 - 17) =     13.68356  eV     1   --> A'             
     e( 18 - 18) =     16.69578  eV     1   --> A'             
     e( 19 - 19) =     17.09900  eV     1   --> A'             
     e( 20 - 20) =     18.48340  eV     1   --> A'             
     e( 21 - 21) =     19.51255  eV     1   --> A''            
     e( 22 - 22) =     21.89875  eV     1   --> A'             
     e( 23 - 23) =     25.40611  eV     1   --> A'             
     e( 24 - 24) =     25.82805  eV     1   --> A''            
     e( 25 - 25) =     26.40335  eV     1   --> A'             
     e( 26 - 26) =     27.08098  eV     1   --> A''            
     e( 27 - 27) =     27.09237  eV     1   --> A''            
     e( 28 - 28) =     27.47474  eV     1   --> A'             
     e( 29 - 29) =     28.59506  eV     1   --> A'             
     e( 30 - 30) =     29.85277  eV     1   --> A'             

 **************************************************************************

 **************************************************************************

                    xk=(   0.33000,   0.19053,   0.53889  )

     Band symmetry, C_s (m)     point group:

     e(  1 -  1) =    -25.99617  eV     1   -->   ?
     e(  2 -  2) =    -25.99513  eV     1   -->   ?
     e(  3 -  3) =    -25.99394  eV     1   -->   ?
     e(  4 -  4) =    -25.99322  eV     1   -->   ?
     e(  5 -  5) =    -25.99287  eV     1   -->   ?
     e(  6 -  6) =    -14.08490  eV     1   --> A'             
     e(  7 -  7) =    -14.08245  eV     1   -->   ?
     e(  8 -  8) =    -14.08021  eV     1   --> A'             
     e(  9 -  9) =    -14.07917  eV     1   -->   ?
     e( 10 - 10) =    -14.07856  eV     1   -->   ?
     e( 11 - 11) =     -0.08298  eV     1   --> A'             
     e( 12 - 12) =      2.44119  eV     1   --> A'             
     e( 13 - 13) =      6.07169  eV     1   --> A'             
     e( 14 - 14) =      8.30731  eV     1   --> A''            
     e( 15 - 15) =      8.78145  eV     1   --> A'             
     e( 16 - 16) =     13.24879  eV     1   --> A''            
     e( 17 - 17) =     13.82066  eV     1   --> A'             
     e( 18 - 18) =     16.78342  eV     1   --> A'             
     e( 19 - 19) =     16.83863  eV     1   --> A'             
     e( 20 - 20) =     18.63514  eV     1   --> A'             
     e( 21 - 21) =     19.66389  eV     1   --> A''            
     e( 22 - 22) =     22.03140  eV     1   --> A'             
     e( 23 - 23) =     25.52319  eV     1   --> A''            
     e( 24 - 24) =     25.58500  eV     1   --> A'             
     e( 25 - 25) =     26.34584  eV     1   --> A'             
     e( 26 - 26) =     27.00435  eV     1   --> A''            
     e( 27 - 27) =     27.00569  eV     1   --> A''            
     e( 28 - 28) =     27.45913  eV     1   --> A'             
     e( 29 - 29) =     28.48416  eV     1   --> A'             
     e( 30 - 30) =     29.62465  eV     1   --> A'             

 **************************************************************************

 **************************************************************************

                    xk=(   0.33750,   0.19486,   0.55114  )

     Band symmetry, C_s (m)     point group:

     e(  1 -  1) =    -25.99620  eV     1   -->   ?
     e(  2 -  2) =    -25.99510  eV     1   -->   ?
     e(  3 -  3) =    -25.99402  eV     1   -->   ?
     e(  4 -  4) =    -25.99316  eV     1   -->   ?
     e(  5 -  5) =    -25.99283  eV     1   -->   ?
     e(  6 -  6) =    -14.08503  eV     1   --> A'             
     e(  7 -  7) =    -14.08233  eV     1   -->   ?
     e(  8 -  8) =    -14.08032  eV     1   --> A'             
     e(  9 -  9) =    -14.07907  eV     1   -->   ?
     e( 10 - 10) =    -14.07849  eV     1   -->   ?
     e( 11 - 11) =     -0.05891  eV     1   --> A'             
     e( 12 - 12) =      2.46547  eV     1   --> A'             
     e( 13 - 13) =      6.00583  eV     1   --> A'             
     e( 14 - 14) =      8.22639  eV     1   --> A''            
     e( 15 - 15) =      8.68483  eV     1   --> A'             
     e( 16 - 16) =     13.40247  eV     1   --> A''            
     e( 17 - 17) =     13.95821  eV     1   --> A'             
     e( 18 - 18) =     16.58534  eV     1   --> A'             
     e( 19 - 19) =     16.87017  eV     1   --> A'             
     e( 20 - 20) =     18.79091  eV     1   --> A'             
     e( 21 - 21) =     19.81867  eV     1   --> A''            
     e( 22 - 22) =     22.16706  eV     1   --> A'             
     e( 23 - 23) =     25.22192  eV     1   --> A''            
     e( 24 - 24) =     25.69685  eV     1   --> A'             
     e( 25 - 25) =     26.29321  eV     1   --> A'             
     e( 26 - 26) =     26.92262  eV     1   --> A''            
     e( 27 - 27) =     26.93066  eV     1   --> A''            
     e( 28 - 28) =     27.43927  eV     1   --> A'             
     e( 29 - 29) =     28.44510  eV     1   --> A'             
     e( 30 - 30) =     29.32466  eV     1   --> A'             

 **************************************************************************

 **************************************************************************

                    xk=(   0.34500,   0.19919,   0.56338  )

     Band symmetry, C_s (m)     point group:

     e(  1 -  1) =    -25.99622  eV     1   -->   ?
     e(  2 -  2) =    -25.99506  eV     1   -->   ?
     e(  3 -  3) =    -25.99411  eV     1   -->   ?
     e(  4 -  4) =    -25.99310  eV     1   -->   ?
     e(  5 -  5) =    -25.99278  eV     1   -->   ?
     e(  6 -  6) =    -14.08516  eV     1   --> A'             
     e(  7 -  7) =    -14.08220  eV     1   -->   ?
     e(  8 -  8) =    -14.08044  eV     1   --> A'             
     e(  9 -  9) =    -14.07898  eV     1   -->   ?
     e( 10 - 10) =    -14.07843  eV     1   -->   ?
     e( 11 - 11) =     -0.04073  eV     1   --> A'             
     e( 12 - 12) =      2.49923  eV     1   --> A'             
     e( 13 - 13) =      5.94254  eV     1   --> A'             
     e( 14 - 14) =      8.14860  eV     1   --> A''            
     e( 15 - 15) =      8.59023  eV     1   --> A'             
     e( 16 - 16) =     13.55881  eV     1   --> A''            
     e( 17 - 17) =     14.09570  eV     1   --> A'             
     e( 18 - 18) =     16.33987  eV     1   --> A'             
     e( 19 - 19) =     16.95575  eV     1   --> A'             
     e( 20 - 20) =     18.95067  eV     1   --> A'             
     e( 21 - 21) =     19.97690  eV     1   --> A''            
     e( 22 - 22) =     22.30548  eV     1   --> A'             
     e( 23 - 23) =     24.92464  eV     1   --> A''            
     e( 24 - 24) =     25.73165  eV     1   --> A'             
     e( 25 - 25) =     26.24548  eV     1   --> A'             
     e( 26 - 26) =     26.84318  eV     1   --> A''            
     e( 27 - 27) =     26.85984  eV     1   --> A''            
     e( 28 - 28) =     27.41398  eV     1   --> A'             
     e( 29 - 29) =     28.49073  eV     1   --> A'             
     e( 30 - 30) =     29.01943  eV     1   --> A'             

 **************************************************************************

 **************************************************************************

                    xk=(   0.35250,   0.20352,   0.57563  )

     Band symmetry, C_s (m)     point group:

     e(  1 -  1) =    -25.99625  eV     1   -->   ?
     e(  2 -  2) =    -25.99503  eV     1   -->   ?
     e(  3 -  3) =    -25.99420  eV     1   -->   ?
     e(  4 -  4) =    -25.99304  eV     1   -->   ?
     e(  5 -  5) =    -25.99274  eV     1   -->   ?
     e(  6 -  6) =    -14.08529  eV     1   --> A'             
     e(  7 -  7) =    -14.08207  eV     1   -->   ?
     e(  8 -  8) =    -14.08055  eV     1   --> A'             
     e(  9 -  9) =    -14.07889  eV     1   -->   ?
     e( 10 - 10) =    -14.07837  eV     1   -->   ?
     e( 11 - 11) =     -0.02805  eV     1   --> A'             
     e( 12 - 12) =      2.54186  eV     1   --> A'             
     e( 13 - 13) =      5.88188  eV     1   --> A'             
     e( 14 - 14) =      8.07403  eV     1   --> A''            
     e( 15 - 15) =      8.49766  eV     1   --> A'             
     e( 16 - 16) =     13.71750  eV     1   --> A''            
     e( 17 - 17) =     14.23237  eV     1   --> A'             
     e( 18 - 18) =     16.10319  eV     1   --> A'             
     e( 19 - 19) =     17.03989  eV     1   --> A'             
     e( 20 - 20) =     19.11439  eV     1   --> A'             
     e( 21 - 21) =     20.13857  eV     1   --> A''            
     e( 22 - 22) =     22.44642  eV     1   --> A'             
     e( 23 - 23) =     24.63173  eV     1   --> A''            
     e( 24 - 24) =     25.69262  eV     1   --> A'             
     e( 25 - 25) =     26.20260  eV     1   --> A'             
     e( 26 - 26) =     26.76739  eV     1   --> A''            
     e( 27 - 27) =     26.79176  eV     1   --> A''            
     e( 28 - 28) =     27.38081  eV     1   --> A'             
     e( 29 - 29) =     28.62177  eV     1   --> A'             
     e( 30 - 30) =     28.71547  eV     1   --> A'             

 **************************************************************************

 **************************************************************************

                    xk=(   0.36000,   0.20785,   0.58788  )

     Band symmetry, C_s (m)     point group:

     e(  1 -  1) =    -25.99628  eV     1   -->   ?
     e(  2 -  2) =    -25.99499  eV     1   -->   ?
     e(  3 -  3) =    -25.99429  eV     1   -->   ?
     e(  4 -  4) =    -25.99298  eV     1   -->   ?
     e(  5 -  5) =    -25.99269  eV     1   -->   ?
     e(  6 -  6) =    -14.08542  eV     1   --> A'             
     e(  7 -  7) =    -14.08193  eV     1   -->   ?
     e(  8 -  8) =    -14.08067  eV     1   --> A'             
     e(  9 -  9) =    -14.07880  eV     1   -->   ?
     e( 10 - 10) =    -14.07831  eV     1   -->   ?
     e( 11 - 11) =     -0.02041  eV     1   --> A'             
     e( 12 - 12) =      2.59260  eV     1   --> A'             
     e( 13 - 13) =      5.82391  eV     1   --> A'             
     e( 14 - 14) =      8.00277  eV     1   --> A''            
     e( 15 - 15) =      8.40713  eV     1   --> A'             
     e( 16 - 16) =     13.87822  eV     1   --> A''            
     e( 17 - 17) =     14.36707  eV     1   --> A'             
     e( 18 - 18) =     15.87658  eV     1   --> A'             
     e( 19 - 19) =     17.12229  eV     1   --> A'             
     e( 20 - 20) =     19.28203  eV     1   --> A'             
     e( 21 - 21) =     20.30366  eV     1   --> A''            
     e( 22 - 22) =     22.58964  eV     1   --> A'             
     e( 23 - 23) =     24.34354  eV     1   --> A''            
     e( 24 - 24) =     25.59420  eV     1   --> A'             
     e( 25 - 25) =     26.16439  eV     1   --> A'             
     e( 26 - 26) =     26.69527  eV     1   --> A''            
     e( 27 - 27) =     26.72629  eV     1   --> A''            
     e( 28 - 28) =     27.33919  eV     1   --> A'             
     e( 29 - 29) =     28.41454  eV     1   --> A'             
     e( 30 - 30) =     28.82519  eV     1   --> A'             

 **************************************************************************

 **************************************************************************

                    xk=(   0.36750,   0.21218,   0.60012  )

     Band symmetry, C_s (m)     point group:

     e(  1 -  1) =    -25.99632  eV     1   -->   ?
     e(  2 -  2) =    -25.99496  eV     1   -->   ?
     e(  3 -  3) =    -25.99438  eV     1   -->   ?
     e(  4 -  4) =    -25.99292  eV     1   -->   ?
     e(  5 -  5) =    -25.99266  eV     1   -->   ?
     e(  6 -  6) =    -14.08555  eV     1   --> A'             
     e(  7 -  7) =    -14.08180  eV     1   -->   ?
     e(  8 -  8) =    -14.08079  eV     1   --> A'             
     e(  9 -  9) =    -14.07871  eV     1   -->   ?
     e( 10 - 10) =    -14.07827  eV     1   -->   ?
     e( 11 - 11) =     -0.01734  eV     1   --> A'             
     e( 12 - 12) =      2.65055  eV     1   --> A'             
     e( 13 - 13) =      5.76869  eV     1   --> A'             
     e( 14 - 14) =      7.93489  eV     1   --> A''            
     e( 15 - 15) =      8.31867  eV     1   --> A'             
     e( 16 - 16) =     14.04060  eV     1   --> A''            
     e( 17 - 17) =     14.49762  eV     1   --> A'             
     e( 18 - 18) =     15.66232  eV     1   --> A'             
     e( 19 - 19) =     17.20266  eV     1   --> A'             
     e( 20 - 20) =     19.45353  eV     1   --> A'             
     e( 21 - 21) =     20.47214  eV     1   --> A''            
     e( 22 - 22) =     22.73484  eV     1   --> A'             
     e( 23 - 23) =     24.06036  eV     1   --> A''            
     e( 24 - 24) =     25.45398  eV     1   --> A'             
     e( 25 - 25) =     26.13048  eV     1   --> A'             
     e( 26 - 26) =     26.62685  eV     1   --> A''            
     e( 27 - 27) =     26.66306  eV     1   --> A''            
     e( 28 - 28) =     27.29048  eV     1   --> A'             
     e( 29 - 29) =     28.11760  eV     1   --> A'             
     e( 30 - 30) =     28.81609  eV     1   --> A''            

 **************************************************************************

 **************************************************************************

                    xk=(   0.37500,   0.21651,   0.61237  )

     Band symmetry, C_s (m)     point group:

     e(  1 -  1) =    -25.99635  eV     1   -->   ?
     e(  2 -  2) =    -25.99493  eV     1   -->   ?
     e(  3 -  3) =    -25.99447  eV     1   -->   ?
     e(  4 -  4) =    -25.99287  eV     1   -->   ?
     e(  5 -  5) =    -25.99263  eV     1   -->   ?
     e(  6 -  6) =    -14.08567  eV     1   --> A'             
     e(  7 -  7) =    -14.08166  eV     1   -->   ?
     e(  8 -  8) =    -14.08090  eV     1   --> A'             
     e(  9 -  9) =    -14.07863  eV     1   -->   ?
     e( 10 - 10) =    -14.07822  eV     1   -->   ?
     e( 11 - 11) =     -0.01814  eV     1   --> A'             
     e( 12 - 12) =      2.71470  eV     1   --> A'             
     e( 13 - 13) =      5.71626  eV     1   --> A'             
     e( 14 - 14) =      7.87048  eV     1   --> A''            
     e( 15 - 15) =      8.23232  eV     1   --> A'             
     e( 16 - 16) =     14.20426  eV     1   --> A''            
     e( 17 - 17) =     14.61922  eV     1   --> A'             
     e( 18 - 18) =     15.46521  eV     1   --> A'             
     e( 19 - 19) =     17.28071  eV     1   --> A'             
     e( 20 - 20) =     19.62882  eV     1   --> A'             
     e( 21 - 21) =     20.64400  eV     1   --> A''            
     e( 22 - 22) =     22.88181  eV     1   --> A'             
     e( 23 - 23) =     23.78259  eV     1   --> A''            
     e( 24 - 24) =     25.28705  eV     1   --> A'             
     e( 25 - 25) =     26.10028  eV     1   --> A'             
     e( 26 - 26) =     26.56214  eV     1   --> A''            
     e( 27 - 27) =     26.60206  eV     1   --> A''            
     e( 28 - 28) =     27.23632  eV     1   --> A'             
     e( 29 - 29) =     27.82548  eV     1   --> A'             
     e( 30 - 30) =     28.53176  eV     1   --> A''            

 **************************************************************************
 
     BANDS        :     26.32s CPU     40.80s WALL

 
   This run was terminated on:   3:32:50  22Feb2021            

=------------------------------------------------------------------------------=
   JOB DONE.
=------------------------------------------------------------------------------=
