
     Program PWSCF v.6.7MaX starts on 13Sep2021 at  7:23: 0 

     This program is part of the open-source Quantum ESPRESSO suite
     for quantum simulation of materials; please cite
         "P. Giannozzi et al., J. Phys.:Condens. Matter 21 395502 (2009);
         "P. Giannozzi et al., J. Phys.:Condens. Matter 29 465901 (2017);
          URL http://www.quantum-espresso.org", 
     in publications or presentations arising from this work. More details at
     http://www.quantum-espresso.org/quote

     Parallel version (MPI), running on    32 processors

     MPI processes distributed on     1 nodes
     R & G space division:  proc/nbgrp/npool/nimage =      32
     Waiting for input...
     Reading input from standard input

     Current dimensions of program PWSCF are:
     Max number of different atomic species (ntypx) = 10
     Max number of k-points (npk) =  40000
     Max angular momentum in pseudopotentials (lmaxx) =  3
     Message from routine read_pp_mesh:
     mesh size missing, using the one in header
     Message from routine read_pp_mesh:
     mesh size missing, using the one in header

     Subspace diagonalization in iterative solution of the eigenvalue problem:
     a serial algorithm will be used

     Message from routine setup:
     no reason to have ecutrho>4*ecutwfc
     Message from routine setup:
     using ibrav=0 with symmetry is DISCOURAGED, use correct ibrav instead
 
     Parallelization info
     --------------------
     sticks:   dense  smooth     PW     G-vecs:    dense   smooth      PW
     Min          98      32      9                19422     3726     573
     Max          99      33     10                19447     3747     592
     Sum        3163    1049    299               622029   119627   18493
 


     bravais-lattice index     =            0
     lattice parameter (alat)  =       8.0079  a.u.
     unit-cell volume          =    2506.4848 (a.u.)^3
     number of atoms/cell      =            4
     number of atomic types    =            2
     number of electrons       =        60.00
     number of Kohn-Sham states=           60
     kinetic-energy cutoff     =      50.0000  Ry
     charge density cutoff     =     600.0000  Ry
     scf convergence threshold =      1.0E-09
     mixing beta               =       0.7000
     number of iterations used =            8  plain     mixing
     Exchange-correlation= PBE
                           (   1   4   3   4   0   0   0)

     celldm(1)=   8.007887  celldm(2)=   0.000000  celldm(3)=   0.000000
     celldm(4)=   0.000000  celldm(5)=   0.000000  celldm(6)=   0.000000

     crystal axes: (cart. coord. in units of alat)
               a(1) = (   1.000000   0.000000   0.000000 )  
               a(2) = (   0.000000   1.034190   0.000000 )  
               a(3) = (   0.000000   0.000000   4.719662 )  

     reciprocal axes: (cart. coord. in units 2 pi/alat)
               b(1) = (  1.000000  0.000000  0.000000 )  
               b(2) = (  0.000000  0.966940  0.000000 )  
               b(3) = (  0.000000  0.000000  0.211880 )  


     PseudoPot. # 1 for Ge read from file:
     ../../pseudo/Ge_ONCV_PBE-1.2.upf
     MD5 check sum: 9f45083245c564cb2163622d60d05ca9
     Pseudo is Norm-conserving, Zval = 14.0
     Generated using ONCVPSP code by D. R. Hamann
     Using radial grid of  602 points,  6 beta functions with: 
                l(1) =   0
                l(2) =   0
                l(3) =   1
                l(4) =   1
                l(5) =   2
                l(6) =   2

     PseudoPot. # 2 for Te read from file:
     ../../pseudo/Te_ONCV_PBE-1.2.upf
     MD5 check sum: dd4de4dac1e38587f63aaf3700bb29d3
     Pseudo is Norm-conserving, Zval = 16.0
     Generated using ONCVPSP code by D. R. Hamann
     Using radial grid of  602 points,  6 beta functions with: 
                l(1) =   0
                l(2) =   0
                l(3) =   1
                l(4) =   1
                l(5) =   2
                l(6) =   2

     atomic species   valence    mass     pseudopotential
        Ge            14.00    72.63000     Ge( 1.00)
        Te            16.00   127.60000     Te( 1.00)

      2 Sym. Ops. (no inversion) found



   Cartesian axes

     site n.     atom                  positions (alat units)
         1           Ge  tau(   1) = (   0.0000000   0.4852822   1.6614487  )
         2           Ge  tau(   2) = (   0.5000000   1.0023560   1.0938804  )
         3           Te  tau(   3) = (   0.5000000   0.0318432   1.7374834  )
         4           Te  tau(   4) = (   0.0000000   0.5488986   1.0178653  )

     number of k points=    81
                       cart. coord. in units 2pi/alat
        k(    1) = (   0.0277778   0.0268595  -0.1059398), wk =   0.0246914
        k(    2) = (   0.0277778   0.0805784  -0.1059398), wk =   0.0246914
        k(    3) = (   0.0277778   0.1342973  -0.1059398), wk =   0.0246914
        k(    4) = (   0.0277778   0.1880162  -0.1059398), wk =   0.0246914
        k(    5) = (   0.0277778   0.2417351  -0.1059398), wk =   0.0246914
        k(    6) = (   0.0277778   0.2954540  -0.1059398), wk =   0.0246914
        k(    7) = (   0.0277778   0.3491729  -0.1059398), wk =   0.0246914
        k(    8) = (   0.0277778   0.4028918  -0.1059398), wk =   0.0246914
        k(    9) = (   0.0277778   0.4566107  -0.1059398), wk =   0.0246914
        k(   10) = (   0.0833333   0.0268595  -0.1059398), wk =   0.0246914
        k(   11) = (   0.0833333   0.0805784  -0.1059398), wk =   0.0246914
        k(   12) = (   0.0833333   0.1342973  -0.1059398), wk =   0.0246914
        k(   13) = (   0.0833333   0.1880162  -0.1059398), wk =   0.0246914
        k(   14) = (   0.0833333   0.2417351  -0.1059398), wk =   0.0246914
        k(   15) = (   0.0833333   0.2954540  -0.1059398), wk =   0.0246914
        k(   16) = (   0.0833333   0.3491729  -0.1059398), wk =   0.0246914
        k(   17) = (   0.0833333   0.4028918  -0.1059398), wk =   0.0246914
        k(   18) = (   0.0833333   0.4566107  -0.1059398), wk =   0.0246914
        k(   19) = (   0.1388889   0.0268595  -0.1059398), wk =   0.0246914
        k(   20) = (   0.1388889   0.0805784  -0.1059398), wk =   0.0246914
        k(   21) = (   0.1388889   0.1342973  -0.1059398), wk =   0.0246914
        k(   22) = (   0.1388889   0.1880162  -0.1059398), wk =   0.0246914
        k(   23) = (   0.1388889   0.2417351  -0.1059398), wk =   0.0246914
        k(   24) = (   0.1388889   0.2954540  -0.1059398), wk =   0.0246914
        k(   25) = (   0.1388889   0.3491729  -0.1059398), wk =   0.0246914
        k(   26) = (   0.1388889   0.4028918  -0.1059398), wk =   0.0246914
        k(   27) = (   0.1388889   0.4566107  -0.1059398), wk =   0.0246914
        k(   28) = (   0.1944444   0.0268595  -0.1059398), wk =   0.0246914
        k(   29) = (   0.1944444   0.0805784  -0.1059398), wk =   0.0246914
        k(   30) = (   0.1944444   0.1342973  -0.1059398), wk =   0.0246914
        k(   31) = (   0.1944444   0.1880162  -0.1059398), wk =   0.0246914
        k(   32) = (   0.1944444   0.2417351  -0.1059398), wk =   0.0246914
        k(   33) = (   0.1944444   0.2954540  -0.1059398), wk =   0.0246914
        k(   34) = (   0.1944444   0.3491729  -0.1059398), wk =   0.0246914
        k(   35) = (   0.1944444   0.4028918  -0.1059398), wk =   0.0246914
        k(   36) = (   0.1944444   0.4566107  -0.1059398), wk =   0.0246914
        k(   37) = (   0.2500000   0.0268595  -0.1059398), wk =   0.0246914
        k(   38) = (   0.2500000   0.0805784  -0.1059398), wk =   0.0246914
        k(   39) = (   0.2500000   0.1342973  -0.1059398), wk =   0.0246914
        k(   40) = (   0.2500000   0.1880162  -0.1059398), wk =   0.0246914
        k(   41) = (   0.2500000   0.2417351  -0.1059398), wk =   0.0246914
        k(   42) = (   0.2500000   0.2954540  -0.1059398), wk =   0.0246914
        k(   43) = (   0.2500000   0.3491729  -0.1059398), wk =   0.0246914
        k(   44) = (   0.2500000   0.4028918  -0.1059398), wk =   0.0246914
        k(   45) = (   0.2500000   0.4566107  -0.1059398), wk =   0.0246914
        k(   46) = (   0.3055556   0.0268595  -0.1059398), wk =   0.0246914
        k(   47) = (   0.3055556   0.0805784  -0.1059398), wk =   0.0246914
        k(   48) = (   0.3055556   0.1342973  -0.1059398), wk =   0.0246914
        k(   49) = (   0.3055556   0.1880162  -0.1059398), wk =   0.0246914
        k(   50) = (   0.3055556   0.2417351  -0.1059398), wk =   0.0246914
        k(   51) = (   0.3055556   0.2954540  -0.1059398), wk =   0.0246914
        k(   52) = (   0.3055556   0.3491729  -0.1059398), wk =   0.0246914
        k(   53) = (   0.3055556   0.4028918  -0.1059398), wk =   0.0246914
        k(   54) = (   0.3055556   0.4566107  -0.1059398), wk =   0.0246914
        k(   55) = (   0.3611111   0.0268595  -0.1059398), wk =   0.0246914
        k(   56) = (   0.3611111   0.0805784  -0.1059398), wk =   0.0246914
        k(   57) = (   0.3611111   0.1342973  -0.1059398), wk =   0.0246914
        k(   58) = (   0.3611111   0.1880162  -0.1059398), wk =   0.0246914
        k(   59) = (   0.3611111   0.2417351  -0.1059398), wk =   0.0246914
        k(   60) = (   0.3611111   0.2954540  -0.1059398), wk =   0.0246914
        k(   61) = (   0.3611111   0.3491729  -0.1059398), wk =   0.0246914
        k(   62) = (   0.3611111   0.4028918  -0.1059398), wk =   0.0246914
        k(   63) = (   0.3611111   0.4566107  -0.1059398), wk =   0.0246914
        k(   64) = (   0.4166667   0.0268595  -0.1059398), wk =   0.0246914
        k(   65) = (   0.4166667   0.0805784  -0.1059398), wk =   0.0246914
        k(   66) = (   0.4166667   0.1342973  -0.1059398), wk =   0.0246914
        k(   67) = (   0.4166667   0.1880162  -0.1059398), wk =   0.0246914
        k(   68) = (   0.4166667   0.2417351  -0.1059398), wk =   0.0246914
        k(   69) = (   0.4166667   0.2954540  -0.1059398), wk =   0.0246914
        k(   70) = (   0.4166667   0.3491729  -0.1059398), wk =   0.0246914
        k(   71) = (   0.4166667   0.4028918  -0.1059398), wk =   0.0246914
        k(   72) = (   0.4166667   0.4566107  -0.1059398), wk =   0.0246914
        k(   73) = (   0.4722222   0.0268595  -0.1059398), wk =   0.0246914
        k(   74) = (   0.4722222   0.0805784  -0.1059398), wk =   0.0246914
        k(   75) = (   0.4722222   0.1342973  -0.1059398), wk =   0.0246914
        k(   76) = (   0.4722222   0.1880162  -0.1059398), wk =   0.0246914
        k(   77) = (   0.4722222   0.2417351  -0.1059398), wk =   0.0246914
        k(   78) = (   0.4722222   0.2954540  -0.1059398), wk =   0.0246914
        k(   79) = (   0.4722222   0.3491729  -0.1059398), wk =   0.0246914
        k(   80) = (   0.4722222   0.4028918  -0.1059398), wk =   0.0246914
        k(   81) = (   0.4722222   0.4566107  -0.1059398), wk =   0.0246914

     Dense  grid:   622029 G-vectors     FFT dimensions: (  64,  72, 300)

     Smooth grid:   119627 G-vectors     FFT dimensions: (  40,  40, 180)

     Estimated max dynamical RAM per process >      53.66 MB

     Estimated total dynamical RAM >       1.68 GB

     Initial potential from superposition of free atoms

     starting charge   59.81470, renormalised to   60.00000

     negative rho (up, down):  4.789E-04 0.000E+00
     Starting wfcs are random

     total cpu time spent up to now is        2.6 secs

     Self-consistent Calculation

     iteration #  1     ecut=    50.00 Ry     beta= 0.70
     Davidson diagonalization with overlap
     ethr =  1.00E-02,  avg # of iterations = 10.0

     Threshold (ethr) on eigenvalues was too large:
     Diagonalizing with lowered threshold

     Davidson diagonalization with overlap
     c_bands:  1 eigenvalues not converged
     ethr =  5.82E-05,  avg # of iterations = 10.2

     negative rho (up, down):  3.722E-05 0.000E+00

     total cpu time spent up to now is       38.2 secs

     total energy              =    -632.71464096 Ry
     estimated scf accuracy    <       0.02879491 Ry

     iteration #  2     ecut=    50.00 Ry     beta= 0.70
     Davidson diagonalization with overlap
     ethr =  4.80E-05,  avg # of iterations =  2.5

     negative rho (up, down):  1.838E-05 0.000E+00

     total cpu time spent up to now is       45.7 secs

     total energy              =    -632.71703728 Ry
     estimated scf accuracy    <       0.01050304 Ry

     iteration #  3     ecut=    50.00 Ry     beta= 0.70
     Davidson diagonalization with overlap
     ethr =  1.75E-05,  avg # of iterations =  7.6

     negative rho (up, down):  6.555E-06 0.000E+00

     total cpu time spent up to now is       55.7 secs

     total energy              =    -632.71968887 Ry
     estimated scf accuracy    <       0.00555756 Ry

     iteration #  4     ecut=    50.00 Ry     beta= 0.70
     Davidson diagonalization with overlap
     ethr =  9.26E-06,  avg # of iterations =  4.4

     negative rho (up, down):  1.519E-06 0.000E+00

     total cpu time spent up to now is       63.1 secs

     total energy              =    -632.72077271 Ry
     estimated scf accuracy    <       0.00039815 Ry

     iteration #  5     ecut=    50.00 Ry     beta= 0.70
     Davidson diagonalization with overlap
     c_bands:  1 eigenvalues not converged
     ethr =  6.64E-07,  avg # of iterations =  5.7

     negative rho (up, down):  1.003E-07 0.000E+00

     total cpu time spent up to now is       71.4 secs

     total energy              =    -632.72084984 Ry
     estimated scf accuracy    <       0.00006796 Ry

     iteration #  6     ecut=    50.00 Ry     beta= 0.70
     Davidson diagonalization with overlap
     ethr =  1.13E-07,  avg # of iterations =  2.1

     total cpu time spent up to now is       77.9 secs

     total energy              =    -632.72083277 Ry
     estimated scf accuracy    <       0.00042124 Ry

     iteration #  7     ecut=    50.00 Ry     beta= 0.70
     Davidson diagonalization with overlap
     ethr =  1.13E-07,  avg # of iterations =  1.1

     total cpu time spent up to now is       83.9 secs

     total energy              =    -632.72087637 Ry
     estimated scf accuracy    <       0.00000190 Ry

     iteration #  8     ecut=    50.00 Ry     beta= 0.70
     Davidson diagonalization with overlap
     ethr =  3.17E-09,  avg # of iterations =  2.0

     total cpu time spent up to now is       90.6 secs

     total energy              =    -632.72087674 Ry
     estimated scf accuracy    <       0.00000008 Ry

     iteration #  9     ecut=    50.00 Ry     beta= 0.70
     Davidson diagonalization with overlap
     ethr =  1.31E-10,  avg # of iterations =  2.0

     total cpu time spent up to now is       97.5 secs

     total energy              =    -632.72087676 Ry
     estimated scf accuracy    <          7.7E-09 Ry

     iteration # 10     ecut=    50.00 Ry     beta= 0.70
     Davidson diagonalization with overlap
     ethr =  1.28E-11,  avg # of iterations =  2.3

     total cpu time spent up to now is      104.5 secs

     End of self-consistent calculation

          k = 0.0278 0.0269-0.1059 ( 14910 PWs)   bands (ev):

   -36.6551 -36.6545 -36.6531 -36.6529 -36.6390 -36.6386 -36.6296 -36.6292
   -36.6254 -36.6246 -24.6688 -24.6623 -24.6586 -24.6578 -24.6504 -24.6464
   -24.6370 -24.6369 -24.6361 -24.6328 -12.5280 -11.0975  -7.0313  -5.7904
    -3.3856  -3.0412  -2.9048  -1.6623  -1.5247  -0.9747   1.5806   2.7204
     3.2876   3.7086   3.7411   4.2512   4.6197   4.7701   5.0333   5.3679
     5.5550   5.9008   7.2191   7.4870   7.8900   8.1142   8.2562   8.5814
     9.3479   9.6312   9.8658  10.0449  10.5690  11.1579  11.4048  11.4304
    11.7970  11.8975  11.9509  12.2488

          k = 0.0278 0.0806-0.1059 ( 14900 PWs)   bands (ev):

   -36.6551 -36.6545 -36.6532 -36.6529 -36.6390 -36.6386 -36.6296 -36.6292
   -36.6254 -36.6246 -24.6687 -24.6624 -24.6586 -24.6579 -24.6503 -24.6464
   -24.6370 -24.6369 -24.6360 -24.6329 -12.4921 -11.0803  -7.1437  -5.8865
    -3.4388  -3.0185  -2.7806  -1.6464  -1.3393  -1.0011   1.5553   2.8244
     3.0593   3.5365   3.7725   4.2978   4.4200   4.7123   5.0298   5.3786
     5.6199   5.9201   7.1061   7.4480   7.8951   8.2573   8.4647   8.8462
     9.4728   9.5929  10.1362  10.1677  10.3495  10.9923  11.0377  11.4946
    11.7636  11.8919  11.8932  12.1478

          k = 0.0278 0.1343-0.1059 ( 14904 PWs)   bands (ev):

   -36.6550 -36.6545 -36.6532 -36.6529 -36.6389 -36.6385 -36.6296 -36.6293
   -36.6254 -36.6246 -24.6685 -24.6625 -24.6587 -24.6580 -24.6501 -24.6464
   -24.6371 -24.6370 -24.6359 -24.6329 -12.4210 -11.0495  -7.3408  -6.0743
    -3.4904  -2.9456  -2.5814  -1.5853  -1.0577  -1.0575   1.5185   2.6638
     2.9880   3.2237   3.8318   4.0813   4.3928   4.5959   5.0209   5.4299
     5.8064   5.9744   6.9224   7.4490   7.9469   8.3994   8.8208   9.1644
     9.5097   9.5942  10.1992  10.2048  10.4138  10.7209  11.1550  11.3952
    11.4688  11.7480  11.9867  12.0146

          k = 0.0278 0.1880-0.1059 ( 14908 PWs)   bands (ev):

   -36.6550 -36.6545 -36.6532 -36.6530 -36.6387 -36.6384 -36.6296 -36.6293
   -36.6253 -36.6246 -24.6682 -24.6628 -24.6587 -24.6582 -24.6497 -24.6464
   -24.6372 -24.6371 -24.6357 -24.6331 -12.3163 -11.0129  -7.5806  -6.3387
    -3.4943  -2.8227  -2.3394  -1.4909  -1.1477  -0.7323   1.4949   2.1958
     2.8172   3.0797   3.7023   3.8666   4.4609   4.5351   5.0797   5.5416
     6.0692   6.1680   6.7599   7.5164   8.0459   8.4166   8.9231   9.0343
     9.4449   9.7624  10.0087  10.5152  10.6544  10.7685  11.0189  11.3218
    11.3517  11.5435  12.0284  12.1723

          k = 0.0278 0.2417-0.1059 ( 14926 PWs)   bands (ev):

   -36.6550 -36.6545 -36.6532 -36.6530 -36.6385 -36.6382 -36.6296 -36.6293
   -36.6253 -36.6247 -24.6678 -24.6632 -24.6588 -24.6584 -24.6493 -24.6464
   -24.6373 -24.6372 -24.6355 -24.6332 -12.1803 -10.9833  -7.8188  -6.6534
    -3.4356  -2.6555  -2.0904  -1.3786  -1.2576  -0.4009   1.5107   1.7296
     2.3716   2.8930   3.3982   3.7563   4.4463   4.7256   5.3500   5.7134
     6.2293   6.6650   6.6688   7.6385   8.1366   8.2348   8.5466   8.8143
     9.2356   9.9637  10.0843  10.1615  10.6077  10.9266  11.3481  11.3774
    11.5705  11.6847  12.1973  12.2520

          k = 0.0278 0.2955-0.1059 ( 14936 PWs)   bands (ev):

   -36.6549 -36.6546 -36.6532 -36.6530 -36.6383 -36.6381 -36.6296 -36.6294
   -36.6252 -36.6247 -24.6673 -24.6636 -24.6589 -24.6586 -24.6489 -24.6465
   -24.6374 -24.6373 -24.6352 -24.6334 -12.0171 -10.9783  -8.0137  -6.9892
    -3.3179  -2.4520  -1.9192  -1.3082  -1.2729  -0.1016   1.3267   1.5826
     1.9436   2.4970   3.1057   3.4854   4.5964   4.9614   5.8358   5.9785
     6.4379   6.6174   7.2302   7.7276   7.8806   8.0014   8.5047   8.6323
     9.0484   9.5194   9.7792  10.1601  10.4558  11.1876  11.4348  11.5443
    11.8993  11.9579  12.1659  12.3608

          k = 0.0278 0.3492-0.1059 ( 14932 PWs)   bands (ev):

   -36.6549 -36.6546 -36.6532 -36.6531 -36.6382 -36.6380 -36.6296 -36.6294
   -36.6252 -36.6248 -24.6668 -24.6641 -24.6589 -24.6587 -24.6484 -24.6466
   -24.6375 -24.6374 -24.6349 -24.6336 -11.8323 -11.0168  -8.1296  -7.3196
    -3.1507  -2.2386  -1.9475  -1.2141  -1.1536   0.0851   1.0723   1.6051
     1.7098   2.0773   2.7540   3.1536   4.8367   5.2421   6.1528   6.4386
     6.6898   6.7266   7.2334   7.5692   7.9011   8.1322   8.3844   8.6690
     9.0549   9.0777   9.5200  10.0498  10.2638  11.1316  11.2536  11.4184
    11.9096  12.0144  12.5578  12.6952

          k = 0.0278 0.4029-0.1059 ( 14940 PWs)   bands (ev):

   -36.6548 -36.6546 -36.6532 -36.6531 -36.6380 -36.6379 -36.6296 -36.6294
   -36.6251 -36.6249 -24.6663 -24.6646 -24.6590 -24.6588 -24.6479 -24.6468
   -24.6376 -24.6375 -24.6347 -24.6338 -11.6348 -11.1103  -8.1444  -7.6215
    -2.9448  -2.2426  -1.8833  -1.2524  -0.8598   0.0364   1.0353   1.4814
     1.6495   1.9326   2.3799   2.8136   5.1326   5.5670   6.1610   6.5258
     6.7693   7.0106   7.4587   7.6094   7.6520   8.3256   8.4368   8.5744
     9.0660   9.2447   9.4712   9.9026  10.1408  10.6977  10.8362  11.2810
    11.7372  11.9162  12.5223  12.6875

          k = 0.0278 0.4566-0.1059 ( 14934 PWs)   bands (ev):

   -36.6548 -36.6547 -36.6532 -36.6531 -36.6380 -36.6379 -36.6296 -36.6294
   -36.6250 -36.6249 -24.6657 -24.6651 -24.6590 -24.6589 -24.6475 -24.6471
   -24.6376 -24.6375 -24.6344 -24.6341 -11.4369 -11.2555  -8.0547  -7.8736
    -2.7117  -2.4666  -1.6380  -1.4062  -0.5274  -0.2066   1.1281   1.3401
     1.6482   1.9507   2.2233   2.4921   5.4685   5.8203   5.9446   6.3451
     6.8586   7.2036   7.3534   7.5220   8.1036   8.2286   8.5775   8.8083
     9.1123   9.3271   9.4207   9.6762  10.1800  10.4497  10.4957  11.2546
    11.4877  11.8907  12.1065  12.3855

          k = 0.0833 0.0269-0.1059 ( 14938 PWs)   bands (ev):

   -36.6550 -36.6544 -36.6532 -36.6529 -36.6390 -36.6386 -36.6296 -36.6293
   -36.6253 -36.6245 -24.6686 -24.6623 -24.6586 -24.6579 -24.6504 -24.6465
   -24.6371 -24.6370 -24.6359 -24.6328 -12.4876 -11.0715  -7.1434  -5.8793
    -3.4373  -3.0660  -2.7792  -1.7139  -1.3173  -0.9865   1.5523   2.8872
     3.0834   3.5478   3.7764   4.2996   4.4513   4.7175   4.9624   5.3536
     5.5356   5.9266   7.1223   7.3044   7.9208   8.3006   8.5211   8.8828
     9.5857   9.6542   9.9081  10.2577  10.5581  11.1581  11.3518  11.3910
    11.5629  11.7233  11.9775  12.1532

          k = 0.0833 0.0806-0.1059 ( 14936 PWs)   bands (ev):

   -36.6550 -36.6544 -36.6532 -36.6530 -36.6390 -36.6386 -36.6296 -36.6293
   -36.6253 -36.6245 -24.6685 -24.6624 -24.6587 -24.6580 -24.6502 -24.6464
   -24.6371 -24.6370 -24.6359 -24.6328 -12.4520 -11.0547  -7.2366  -5.9657
    -3.4599  -3.1955  -2.5176  -1.8283  -1.0434  -1.0095   1.5370   2.6482
     2.9522   3.6776   3.8065   4.1761   4.3503   4.6631   5.0085   5.4033
     5.6857   5.9522   7.0610   7.4097   7.9566   8.1992   8.5289   9.2280
     9.4610   9.8091  10.1682  10.2081  10.4158  11.0468  11.1361  11.2982
    11.4556  11.7096  11.8168  11.8776

          k = 0.0833 0.1343-0.1059 ( 14928 PWs)   bands (ev):

   -36.6550 -36.6544 -36.6532 -36.6530 -36.6389 -36.6385 -36.6296 -36.6293
   -36.6253 -36.6246 -24.6683 -24.6625 -24.6587 -24.6581 -24.6500 -24.6464
   -24.6372 -24.6371 -24.6358 -24.6329 -12.3815 -11.0247  -7.4043  -6.1358
    -3.4798  -3.2554  -2.2116  -1.8772  -1.0565  -0.7114   1.5164   2.1458
     2.9826   3.6127   3.8618   3.8882   4.4427   4.5624   5.0506   5.4866
     5.9380   6.0155   6.9097   7.5816   8.0292   8.3119   8.6236   9.0259
     9.6395   9.9199  10.2108  10.2677  10.5757  10.5856  11.0968  11.1217
    11.3865  11.6005  11.6298  11.6880

          k = 0.0833 0.1880-0.1059 ( 14936 PWs)   bands (ev):

   -36.6549 -36.6544 -36.6532 -36.6530 -36.6387 -36.6384 -36.6296 -36.6293
   -36.6253 -36.6246 -24.6680 -24.6628 -24.6588 -24.6583 -24.6497 -24.6464
   -24.6373 -24.6372 -24.6356 -24.6330 -12.2775 -10.9892  -7.6141  -6.3786
    -3.4665  -3.2351  -1.9109  -1.8526  -1.1174  -0.3946   1.5092   1.6714
     2.7695   3.3649   3.8033   3.8832   4.4629   4.5850   5.1528   5.6090
     6.1170   6.3061   6.7105   7.7790   8.1246   8.3831   8.7946   9.0621
     9.0943   9.6453  10.1206  10.3849  10.6244  10.7459  11.0106  11.1073
    11.5338  11.5650  11.6363  11.7601

          k = 0.0833 0.2417-0.1059 ( 14942 PWs)   bands (ev):

   -36.6549 -36.6545 -36.6532 -36.6530 -36.6385 -36.6382 -36.6296 -36.6293
   -36.6252 -36.6247 -24.6676 -24.6632 -24.6589 -24.6585 -24.6492 -24.6464
   -24.6374 -24.6373 -24.6354 -24.6331 -12.1428 -10.9609  -7.8272  -6.6726
    -3.4030  -3.1414  -1.7777  -1.7056  -1.1233  -0.1729   1.3218   1.5360
     2.3629   3.0013   3.7624   3.7874   4.4812   4.7751   5.4260   5.7803
     6.2756   6.5484   6.7834   7.9321   8.1853   8.2093   8.6905   8.8147
     9.1021   9.5503   9.7864  10.1211  10.2929  11.0428  11.1421  11.4576
    11.8452  11.8903  12.0228  12.0246

          k = 0.0833 0.2955-0.1059 ( 14938 PWs)   bands (ev):

   -36.6549 -36.6545 -36.6532 -36.6531 -36.6383 -36.6381 -36.6296 -36.6294
   -36.6252 -36.6247 -24.6672 -24.6636 -24.6589 -24.6587 -24.6488 -24.6465
   -24.6376 -24.6374 -24.6351 -24.6333 -11.9811 -10.9569  -8.0034  -6.9912
    -3.2868  -2.9850  -1.7307  -1.6882  -0.9477  -0.1495   1.2197   1.6007
     1.9356   2.5975   3.4998   3.6413   4.6399   5.0084   5.8405   6.0622
     6.4822   6.4938   7.2706   7.7122   7.9315   8.3358   8.6173   8.6758
     8.8873   9.4008   9.5804   9.7606  10.7042  11.0093  11.3349  11.6527
    11.6840  12.0699  12.1618  12.2611

          k = 0.0833 0.3492-0.1059 ( 14940 PWs)   bands (ev):

   -36.6548 -36.6545 -36.6532 -36.6531 -36.6382 -36.6380 -36.6296 -36.6294
   -36.6251 -36.6248 -24.6667 -24.6640 -24.6590 -24.6588 -24.6483 -24.6466
   -24.6376 -24.6375 -24.6348 -24.6335 -11.7984 -10.9954  -8.1073  -7.3085
    -3.1241  -2.7793  -1.9055  -1.6428  -0.6738  -0.2703   1.3263   1.4686
     1.8026   2.2382   3.1795   3.3704   4.8798   5.2851   6.0875   6.3911
     6.7276   6.8207   7.2232   7.3781   7.8759   8.4169   8.5738   8.7510
     8.7584   9.2070   9.3779   9.8731  10.6523  11.1433  11.2160  11.3671
    11.7491  11.9381  12.2571  12.4712

          k = 0.0833 0.4029-0.1059 ( 14940 PWs)   bands (ev):

   -36.6548 -36.6546 -36.6532 -36.6531 -36.6380 -36.6379 -36.6296 -36.6295
   -36.6251 -36.6248 -24.6662 -24.6645 -24.6591 -24.6589 -24.6479 -24.6468
   -24.6377 -24.6376 -24.6345 -24.6337 -11.6034 -11.0875  -8.1160  -7.6010
    -2.9244  -2.5535  -2.1133  -1.7164  -0.4228  -0.3384   1.1812   1.3578
     1.9821   2.1099   2.8496   3.0323   5.1714   5.6038   6.0919   6.5621
     6.7854   7.0277   7.1809   7.5943   7.6737   8.1343   8.4093   8.9239
     9.1745   9.2953   9.5637  10.0236  10.3714  10.7716  10.7991  11.0292
    11.3671  12.2198  12.4271  12.5927

          k = 0.0833 0.4566-0.1059 ( 14938 PWs)   bands (ev):

   -36.6547 -36.6546 -36.6532 -36.6531 -36.6380 -36.6379 -36.6296 -36.6295
   -36.6250 -36.6249 -24.6656 -24.6651 -24.6591 -24.6590 -24.6475 -24.6471
   -24.6377 -24.6376 -24.6343 -24.6340 -11.4085 -11.2302  -8.0252  -7.8470
    -2.7018  -2.4984  -2.1425  -1.9158  -0.3032  -0.2893   1.0700   1.1822
     2.2209   2.3029   2.5489   2.6787   5.4966   5.8149   5.9892   6.3748
     6.8373   7.1181   7.2785   7.3625   7.8867   7.9983   8.6445   9.2248
     9.3010   9.5493   9.6849   9.7833  10.2434  10.4713  10.5642  10.9743
    11.0488  11.6932  12.6293  12.6704

          k = 0.1389 0.0269-0.1059 ( 14958 PWs)   bands (ev):

   -36.6548 -36.6543 -36.6532 -36.6530 -36.6390 -36.6386 -36.6297 -36.6293
   -36.6253 -36.6245 -24.6683 -24.6623 -24.6587 -24.6581 -24.6502 -24.6466
   -24.6373 -24.6372 -24.6357 -24.6327 -12.4077 -11.0229  -7.3460  -6.0589
    -3.4935  -3.0378  -2.6121  -1.6881  -1.0701  -1.0160   1.5078   2.6781
     3.1408   3.2605   3.8385   4.1666   4.4058   4.6094   4.8085   5.4083
     5.6838   5.9902   6.9365   7.1641   8.0050   8.4457   8.9674   9.3862
     9.4657   9.9408  10.0024  10.2774  10.7187  10.9238  11.2250  11.4173
    11.4606  11.6827  11.8483  11.9636

          k = 0.1389 0.0806-0.1059 ( 14948 PWs)   bands (ev):

   -36.6548 -36.6543 -36.6532 -36.6530 -36.6390 -36.6386 -36.6297 -36.6293
   -36.6252 -36.6245 -24.6682 -24.6624 -24.6588 -24.6582 -24.6501 -24.6466
   -24.6373 -24.6372 -24.6356 -24.6327 -12.3726 -11.0069  -7.4091  -6.1270
    -3.4831  -3.2966  -2.2490  -1.9179  -1.0293  -0.7452   1.5081   2.1523
     3.0563   3.6505   3.8600   3.9437   4.4505   4.5705   4.9493   5.4721
     5.8443   6.0250   6.8641   7.4486   8.0620   8.3944   8.6958   9.0640
     9.8583   9.9407  10.2072  10.2940  10.7046  10.8506  11.0006  11.0621
    11.1846  11.3963  11.8430  11.8582

          k = 0.1389 0.1343-0.1059 ( 14918 PWs)   bands (ev):

   -36.6548 -36.6543 -36.6532 -36.6530 -36.6388 -36.6385 -36.6297 -36.6293
   -36.6252 -36.6245 -24.6680 -24.6625 -24.6588 -24.6583 -24.6499 -24.6465
   -24.6374 -24.6373 -24.6355 -24.6328 -12.3031 -10.9786  -7.5273  -6.2636
    -3.4855  -3.4598  -2.1020  -1.8757  -1.0437  -0.4087   1.5135   1.6680
     2.7570   3.8472   3.8974   3.9020   4.5092   4.5436   5.0479   5.5793
     6.0859   6.1520   6.8445   7.7534   8.1799   8.3232   8.6695   8.7935
     9.6932   9.9382  10.1329  10.1566  10.5513  10.6069  10.9314  11.0519
    11.2657  11.4533  11.6499  11.7951

          k = 0.1389 0.1880-0.1059 ( 14956 PWs)   bands (ev):

   -36.6548 -36.6543 -36.6532 -36.6531 -36.6387 -36.6384 -36.6297 -36.6294
   -36.6252 -36.6246 -24.6677 -24.6628 -24.6589 -24.6585 -24.6495 -24.6465
   -24.6375 -24.6374 -24.6353 -24.6329 -12.2009 -10.9454  -7.6828  -6.4648
    -3.5793  -3.4164  -2.1932  -1.6063  -0.9928  -0.2253   1.3709   1.5324
     2.3137   3.7703   3.9363   3.9951   4.4813   4.6874   5.1879   5.7203
     6.2064   6.5321   6.7687   8.0198   8.3144   8.3225   8.6006   8.8851
     9.2154   9.5927   9.6697  10.2374  10.2608  10.6632  10.9995  11.0298
    11.3958  11.5141  11.6462  12.0005

          k = 0.1389 0.2417-0.1059 ( 14944 PWs)   bands (ev):

   -36.6547 -36.6543 -36.6532 -36.6531 -36.6385 -36.6382 -36.6297 -36.6294
   -36.6251 -36.6246 -24.6674 -24.6631 -24.6590 -24.6587 -24.6491 -24.6465
   -24.6376 -24.6375 -24.6351 -24.6330 -12.0686 -10.9195  -7.8473  -6.7175
    -3.5780  -3.3420  -2.2027  -1.5754  -0.7733  -0.3308   1.3999   1.5582
     1.8796   3.5331   3.8189   4.0642   4.5538   4.8785   5.4653   5.9058
     6.3658   6.6441   6.9656   8.1666   8.1814   8.2949   8.6183   9.0085
     9.0098   9.2072   9.4987   9.9371  10.1584  10.6073  11.0370  11.1751
    11.4672  11.6912  12.0751  12.2909

          k = 0.1389 0.2955-0.1059 ( 14946 PWs)   bands (ev):

   -36.6547 -36.6544 -36.6533 -36.6531 -36.6383 -36.6381 -36.6297 -36.6294
   -36.6251 -36.6246 -24.6669 -24.6635 -24.6591 -24.6588 -24.6487 -24.6465
   -24.6378 -24.6376 -24.6348 -24.6332 -11.9102 -10.9172  -7.9861  -7.0008
    -3.4905  -3.2287  -2.1718  -1.7077  -0.6076  -0.4956   1.3856   1.6543
     1.7526   3.2027   3.5776   4.0315   4.7258   5.1072   5.7916   6.1660
     6.5661   6.6396   7.2760   7.7862   8.0608   8.3920   8.5010   8.6691
     9.1228   9.3524   9.4763   9.7294  10.1630  10.7774  11.0518  11.2263
    11.5416  12.0194  12.2409  12.3393

          k = 0.1389 0.3492-0.1059 ( 14966 PWs)   bands (ev):

   -36.6547 -36.6544 -36.6533 -36.6531 -36.6382 -36.6380 -36.6297 -36.6295
   -36.6250 -36.6247 -24.6665 -24.6640 -24.6592 -24.6590 -24.6482 -24.6466
   -24.6378 -24.6377 -24.6346 -24.6334 -11.7318 -10.9554  -8.0653  -7.2907
    -3.3298  -3.0756  -2.1737  -1.9092  -0.8432  -0.3212   1.1684   1.8834
     1.9448   2.8680   3.2780   3.8886   4.9635   5.3708   5.9371   6.4307
     6.7839   7.0452   7.1585   7.3819   7.7900   8.2784   8.7192   8.7305
     8.9788   9.3392   9.6265   9.6755  10.7355  10.7805  10.9366  11.2124
    11.6981  11.7096  11.9464  12.4590

          k = 0.1389 0.4029-0.1059 ( 14976 PWs)   bands (ev):

   -36.6546 -36.6544 -36.6533 -36.6532 -36.6380 -36.6379 -36.6296 -36.6295
   -36.6250 -36.6248 -24.6660 -24.6644 -24.6592 -24.6591 -24.6478 -24.6468
   -24.6379 -24.6378 -24.6343 -24.6336 -11.5421 -11.0443  -8.0614  -7.5634
    -3.1118  -2.8911  -2.2901  -2.1411  -0.9005  -0.3624   1.2006   2.0278
     2.0821   2.7253   2.9837   3.6482   5.2438   5.6559   5.9707   6.6405
     6.7521   7.0323   7.0378   7.4755   7.8725   7.9739   8.5030   9.0294
     9.0636   9.6739   9.9275   9.9400  10.5374  10.5509  10.8444  11.1657
    11.4672  11.5388  11.9768  12.4460

          k = 0.1389 0.4566-0.1059 ( 14956 PWs)   bands (ev):

   -36.6546 -36.6545 -36.6533 -36.6532 -36.6380 -36.6379 -36.6296 -36.6295
   -36.6249 -36.6248 -24.6655 -24.6649 -24.6593 -24.6592 -24.6474 -24.6470
   -24.6379 -24.6378 -24.6341 -24.6338 -11.3534 -11.1815  -7.9685  -7.7964
    -2.8624  -2.7246  -2.4738  -2.3732  -0.7761  -0.5609   1.4449   1.7697
     2.3278   2.6003   3.0319   3.3437   5.5389   5.7693   6.0786   6.4078
     6.7224   6.8890   7.1626   7.4125   7.7958   8.0569   8.7906   9.1617
     9.2416   9.8285  10.1368  10.1557  10.3631  10.4425  10.5267  10.7721
    11.2507  11.7319  11.9912  12.3063

          k = 0.1944 0.0269-0.1059 ( 14958 PWs)   bands (ev):

   -36.6546 -36.6541 -36.6533 -36.6531 -36.6390 -36.6386 -36.6297 -36.6294
   -36.6251 -36.6244 -24.6678 -24.6623 -24.6589 -24.6584 -24.6500 -24.6467
   -24.6375 -24.6374 -24.6353 -24.6326 -12.2896 -10.9595  -7.6030  -6.3223
    -3.5060  -2.9490  -2.4233  -1.6039  -1.0709  -0.8114   1.4700   2.1872
     2.8418   3.2105   3.8829   3.8880   4.4881   4.5633   4.7951   5.5374
     6.0600   6.1314   6.7010   7.1973   8.1405   8.4983   9.0635   9.3391
     9.5895   9.8913  10.0606  10.5023  10.8683  10.9777  11.0046  11.2715
    11.4124  11.7113  11.8938  11.9101

          k = 0.1944 0.0806-0.1059 ( 14958 PWs)   bands (ev):

   -36.6546 -36.6541 -36.6533 -36.6531 -36.6389 -36.6386 -36.6297 -36.6294
   -36.6251 -36.6244 -24.6677 -24.6624 -24.6589 -24.6585 -24.6499 -24.6467
   -24.6376 -24.6375 -24.6352 -24.6326 -12.2553 -10.9448  -7.6349  -6.3674
    -3.4787  -3.3119  -2.0012  -1.9101  -1.0587  -0.5000   1.4848   1.6826
     2.8256   3.3903   3.8883   3.9845   4.4842   4.6106   4.9743   5.5955
     6.1255   6.2243   6.5944   7.5601   8.2047   8.4794   8.8633   9.2516
     9.3798   9.7299  10.1331  10.3495  10.5557  10.9245  11.1721  11.3185
    11.3439  11.5637  11.6404  11.6479

          k = 0.1944 0.1343-0.1059 ( 14952 PWs)   bands (ev):

   -36.6546 -36.6541 -36.6533 -36.6531 -36.6388 -36.6385 -36.6297 -36.6294
   -36.6251 -36.6245 -24.6675 -24.6626 -24.6590 -24.6586 -24.6497 -24.6466
   -24.6377 -24.6375 -24.6351 -24.6327 -12.1876 -10.9188  -7.6975  -6.4610
    -3.6149  -3.4267  -2.2087  -1.6478  -0.9775  -0.3038   1.3842   1.5127
     2.3347   3.8306   3.8922   4.0888   4.4930   4.7072   5.1358   5.7118
     6.2146   6.4525   6.6588   7.9327   8.3566   8.3862   8.6659   8.9604
     9.4456   9.5347   9.8286  10.0415  10.3194  10.7332  10.7487  11.2844
    11.4996  11.5867  11.7056  11.7481

          k = 0.1944 0.1880-0.1059 ( 14960 PWs)   bands (ev):

   -36.6546 -36.6541 -36.6533 -36.6531 -36.6387 -36.6384 -36.6297 -36.6294
   -36.6251 -36.6245 -24.6673 -24.6628 -24.6591 -24.6587 -24.6493 -24.6466
   -24.6378 -24.6376 -24.6350 -24.6328 -12.0881 -10.8888  -7.7852  -6.6059
    -3.8214  -3.3546  -2.4230  -1.5285  -0.7262  -0.4468   1.4753   1.5294
     1.8910   3.7910   4.1238   4.1589   4.5478   4.8540   5.3198   5.8652
     6.3365   6.7826   6.7973   8.1935   8.2692   8.4249   8.5495   8.9613
     9.1965   9.3891   9.6015   9.7652  10.0690  10.5177  10.6437  11.0607
    11.3823  11.4714  11.6793  11.9685

          k = 0.1944 0.2417-0.1059 ( 14956 PWs)   bands (ev):

   -36.6545 -36.6542 -36.6533 -36.6532 -36.6385 -36.6382 -36.6297 -36.6295
   -36.6250 -36.6245 -24.6670 -24.6631 -24.6592 -24.6589 -24.6489 -24.6465
   -24.6379 -24.6377 -24.6348 -24.6329 -11.9597 -10.8661  -7.8833  -6.7991
    -3.9212  -3.2655  -2.5415  -1.5933  -0.8050  -0.4280   1.3636   1.7604
     1.8263   3.6266   4.1606   4.1802   4.6686   5.0431   5.6027   6.0572
     6.4934   6.8804   7.1035   8.1260   8.2560   8.3258   8.4568   9.0318
     9.1512   9.2641   9.3796   9.8534   9.9084  10.4112  10.4541  10.8893
    11.2772  11.4606  11.7250  12.1886

          k = 0.1944 0.2955-0.1059 ( 14954 PWs)   bands (ev):

   -36.6545 -36.6542 -36.6533 -36.6532 -36.6383 -36.6381 -36.6297 -36.6295
   -36.6250 -36.6246 -24.6666 -24.6635 -24.6593 -24.6591 -24.6485 -24.6465
   -24.6380 -24.6378 -24.6345 -24.6330 -11.8067 -10.8655  -7.9673  -7.0286
    -3.9164  -3.1566  -2.5974  -1.7435  -1.1707  -0.3033   1.2277   1.8672
     2.2445   3.3903   4.0015   4.1752   4.8516   5.2686   5.8723   6.2967
     6.6699   7.0046   7.1770   7.9096   7.9121   8.3205   8.6198   8.7226
     9.3487   9.4424   9.4607   9.7343  10.0547  10.2287  10.5657  10.7522
    11.2590  11.6912  11.9071  12.1987

          k = 0.1944 0.3492-0.1059 ( 14960 PWs)   bands (ev):

   -36.6545 -36.6542 -36.6533 -36.6532 -36.6382 -36.6380 -36.6297 -36.6296
   -36.6249 -36.6246 -24.6662 -24.6639 -24.6594 -24.6592 -24.6481 -24.6466
   -24.6381 -24.6379 -24.6343 -24.6332 -11.6352 -10.9023  -8.0087  -7.2749
    -3.8179  -3.0209  -2.6736  -1.9426  -1.4098  -0.4461   1.3628   2.0470
     2.6158   3.1355   3.7324   4.1474   5.0822   5.5200   5.9503   6.5505
     6.7468   7.0835   7.3316   7.5565   7.6760   8.1372   8.7872   8.9220
     9.1522   9.3097   9.6757  10.1332  10.3277  10.4834  10.5767  10.7062
    11.2011  11.7455  12.1504  12.1874

          k = 0.1944 0.4029-0.1059 ( 14982 PWs)   bands (ev):

   -36.6544 -36.6543 -36.6533 -36.6532 -36.6380 -36.6379 -36.6297 -36.6296
   -36.6249 -36.6247 -24.6657 -24.6643 -24.6594 -24.6593 -24.6476 -24.6467
   -24.6382 -24.6380 -24.6340 -24.6334 -11.4541 -10.9856  -7.9853  -7.5153
    -3.6409  -2.9068  -2.7980  -2.1690  -1.4381  -0.7299   1.6582   2.2849
     2.6392   3.0678   3.5088   4.0652   5.3377   5.7147   5.9858   6.5623
     6.7647   7.0576   7.0762   7.5047   7.9285   8.1694   8.6197   8.8580
     9.0561   9.8987  10.0165  10.0922  10.5819  10.6035  10.7335  10.9060
    11.3045  11.3279  11.9945  12.0673

          k = 0.1944 0.4566-0.1059 ( 14978 PWs)   bands (ev):

   -36.6544 -36.6543 -36.6533 -36.6533 -36.6380 -36.6379 -36.6297 -36.6296
   -36.6248 -36.6247 -24.6653 -24.6648 -24.6595 -24.6594 -24.6473 -24.6470
   -24.6382 -24.6381 -24.6338 -24.6335 -11.2752 -11.1138  -7.8892  -7.7270
    -3.4041  -3.1342  -2.6286  -2.4038  -1.2863  -1.0311   2.0000   2.3416
     2.5725   2.8817   3.6486   3.8937   5.5707   5.7042   6.2097   6.3827
     6.6752   6.7867   7.2219   7.4881   7.8818   8.1881   8.8838   8.8862
     9.2372  10.0275  10.1234  10.3330  10.3610  10.6413  10.7508  11.1024
    11.2720  11.5702  11.6168  11.9443

          k = 0.2500 0.0269-0.1059 ( 14976 PWs)   bands (ev):

   -36.6544 -36.6539 -36.6533 -36.6531 -36.6390 -36.6387 -36.6298 -36.6295
   -36.6250 -36.6244 -24.6672 -24.6624 -24.6590 -24.6587 -24.6498 -24.6470
   -24.6378 -24.6377 -24.6349 -24.6325 -12.1360 -10.8954  -7.8708  -6.6478
    -3.4537  -2.8039  -2.2305  -1.4827  -1.1491  -0.5651   1.4655   1.7071
     2.3569   2.9088   3.5747   3.7894   4.4829   4.7611   5.2392   5.7253
     6.2610   6.5419   6.7077   7.3232   8.3182   8.3937   8.7238   8.9032
     9.4449   9.9048  10.0362  10.3547  10.6656  10.9417  11.3197  11.4461
    11.6099  11.7096  12.1056  12.1519

          k = 0.2500 0.0806-0.1059 ( 14970 PWs)   bands (ev):

   -36.6544 -36.6539 -36.6533 -36.6531 -36.6389 -36.6386 -36.6298 -36.6295
   -36.6250 -36.6244 -24.6671 -24.6625 -24.6591 -24.6587 -24.6497 -24.6469
   -24.6378 -24.6377 -24.6348 -24.6325 -12.1029 -10.8822  -7.8764  -6.6705
    -3.4239  -3.2437  -1.8255  -1.8200  -1.0684  -0.3827   1.3509   1.4849
     2.3957   2.9735   3.7821   3.9458   4.5134   4.8130   5.3659   5.7641
     6.3032   6.3804   6.7810   7.7004   8.3489   8.3681   8.8165   8.8648
     9.2611   9.5266   9.8981  10.3269  10.3529  10.9680  11.1158  11.4757
    11.4918  11.8992  12.0080  12.2510

          k = 0.2500 0.1343-0.1059 ( 14984 PWs)   bands (ev):

   -36.6543 -36.6539 -36.6533 -36.6532 -36.6388 -36.6385 -36.6298 -36.6295
   -36.6249 -36.6244 -24.6670 -24.6627 -24.6592 -24.6588 -24.6494 -24.6468
   -24.6379 -24.6378 -24.6347 -24.6326 -12.0378 -10.8590  -7.8889  -6.7203
    -3.6383  -3.3671  -2.2004  -1.6033  -0.8100  -0.4988   1.4126   1.4944
     1.9264   3.5532   3.7808   4.1584   4.5783   4.9166   5.5239   5.8819
     6.3857   6.4223   6.9162   8.0845   8.2574   8.4652   8.6002   9.0461
     9.0908   9.3292   9.6894  10.0195  10.1319  10.6091  10.7994  11.2738
    11.4461  11.7176  11.9924  12.0488

          k = 0.2500 0.1880-0.1059 ( 14972 PWs)   bands (ev):

   -36.6543 -36.6539 -36.6533 -36.6532 -36.6386 -36.6384 -36.6298 -36.6295
   -36.6249 -36.6244 -24.6668 -24.6629 -24.6593 -24.6590 -24.6491 -24.6467
   -24.6380 -24.6379 -24.6346 -24.6326 -11.9423 -10.8323  -7.9094  -6.8042
    -3.9454  -3.2897  -2.5131  -1.5933  -0.8895  -0.4723   1.3438   1.7693
     1.8150   3.6519   4.1153   4.1996   4.6826   5.0647   5.7002   6.0548
     6.5031   6.7031   7.0727   8.0840   8.2648   8.3378   8.5674   9.0816
     9.3348   9.4122   9.4143   9.6670   9.8540  10.3175  10.5610  11.0430
    11.2095  11.3109  11.6403  12.0870

          k = 0.2500 0.2417-0.1059 ( 14952 PWs)   bands (ev):

   -36.6543 -36.6540 -36.6534 -36.6532 -36.6385 -36.6382 -36.6298 -36.6296
   -36.6249 -36.6244 -24.6665 -24.6631 -24.6594 -24.6591 -24.6487 -24.6466
   -24.6381 -24.6380 -24.6344 -24.6327 -11.8197 -10.8125  -7.9340  -6.9271
    -4.1463  -3.2033  -2.7376  -1.6821  -1.3307  -0.3352   1.2532   1.8689
     2.3236   3.5388   4.1597   4.4112   4.8282   5.2516   5.9476   6.2513
     6.6380   7.0474   7.1485   7.7090   8.3924   8.3971   8.6066   9.0494
     9.2509   9.2832   9.4365   9.6091   9.9559  10.1038  10.4099  10.7966
    10.9444  11.0552  11.4365  12.1833

          k = 0.2500 0.2955-0.1059 ( 14954 PWs)   bands (ev):

   -36.6543 -36.6540 -36.6534 -36.6533 -36.6383 -36.6381 -36.6298 -36.6296
   -36.6248 -36.6245 -24.6662 -24.6635 -24.6595 -24.6593 -24.6483 -24.6466
   -24.6383 -24.6381 -24.6342 -24.6328 -11.6744 -10.8125  -7.9517  -7.0872
    -4.2337  -3.1227  -2.8902  -1.8327  -1.6947  -0.5039   1.4456   2.0645
     2.8203   3.3764   4.1225   4.4654   5.0122   5.4776   6.1699   6.4785
     6.7042   7.0820   7.3928   7.5422   8.0557   8.5576   8.7286   8.9088
     9.2890   9.3451   9.4774   9.7115   9.9787  10.0113  10.3131  10.6357
    10.9057  11.2060  11.5951  12.0626

          k = 0.2500 0.3492-0.1059 ( 14978 PWs)   bands (ev):

   -36.6542 -36.6540 -36.6534 -36.6533 -36.6381 -36.6380 -36.6298 -36.6297
   -36.6248 -36.6245 -24.6658 -24.6638 -24.6596 -24.6595 -24.6479 -24.6466
   -24.6384 -24.6382 -24.6339 -24.6330 -11.5130 -10.8453  -7.9445  -7.2734
    -4.2109  -3.1183  -2.9761  -2.0294  -1.8801  -0.8125   1.7424   2.3559
     3.0482   3.3798   4.1215   4.3136   5.2257   5.7365   6.2260   6.5526
     6.7181   7.1088   7.5608   7.5619   7.9254   8.1666   8.7928   9.0494
     9.2711   9.5064   9.7935   9.7963  10.0611  10.0774  10.1935  10.9365
    11.0603  11.4782  11.8660  11.8733

          k = 0.2500 0.4029-0.1059 ( 14958 PWs)   bands (ev):

   -36.6542 -36.6541 -36.6534 -36.6533 -36.6380 -36.6379 -36.6298 -36.6297
   -36.6247 -36.6246 -24.6654 -24.6642 -24.6597 -24.6596 -24.6475 -24.6467
   -24.6384 -24.6383 -24.6337 -24.6331 -11.3442 -10.9192  -7.8950  -7.4672
    -4.0902  -3.3475  -2.8701  -2.2542  -1.8548  -1.1383   2.0276   2.7301
     2.8335   3.6513   4.0804   4.1466   5.4447   5.9536   6.1727   6.4012
     6.9260   7.0751   7.2193   7.6637   7.8928   8.4980   8.7205   8.7673
     9.0543   9.8759  10.0783  10.1404  10.2211  10.4236  10.5634  10.9044
    11.2783  11.4223  11.6526  11.7706

          k = 0.2500 0.4566-0.1059 ( 14982 PWs)   bands (ev):

   -36.6542 -36.6541 -36.6534 -36.6533 -36.6380 -36.6379 -36.6298 -36.6297
   -36.6247 -36.6246 -24.6650 -24.6646 -24.6597 -24.6596 -24.6472 -24.6469
   -24.6384 -24.6384 -24.6335 -24.6333 -11.1800 -11.0338  -7.7948  -7.6476
    -3.8887  -3.6294  -2.6971  -2.4848  -1.6865  -1.4371   2.2992   2.5692
     3.1370   3.5168   4.0836   4.1525   5.6428   5.8334   6.3731   6.4051
     6.7850   6.8596   7.3270   7.5514   8.0509   8.3488   8.6381   8.7234
     9.4877  10.0916  10.2272  10.3418  10.3919  10.4572  10.9188  10.9891
    11.0017  11.2362  11.3258  11.7492

          k = 0.3056 0.0269-0.1059 ( 14996 PWs)   bands (ev):

   -36.6541 -36.6537 -36.6534 -36.6532 -36.6389 -36.6387 -36.6298 -36.6296
   -36.6248 -36.6243 -24.6665 -24.6627 -24.6592 -24.6589 -24.6495 -24.6472
   -24.6381 -24.6380 -24.6344 -24.6325 -11.9509 -10.8526  -8.1026  -7.0053
    -3.3378  -2.6126  -2.0734  -1.3533  -1.2127  -0.3671   1.3191   1.5097
     1.8755   2.4768   3.1727   3.5302   4.6433   5.0073   5.9406   6.0162
     6.4698   6.4822   7.4006   7.5054   8.0570   8.1746   8.5554   8.7722
     9.1146   9.6830   9.7541   9.9961  10.5032  10.7912  11.5385  11.7023
    11.9273  12.0488  12.2776  12.4978

          k = 0.3056 0.0806-0.1059 ( 14992 PWs)   bands (ev):

   -36.6541 -36.6537 -36.6534 -36.6532 -36.6389 -36.6386 -36.6298 -36.6296
   -36.6248 -36.6243 -24.6665 -24.6627 -24.6592 -24.6590 -24.6494 -24.6472
   -24.6381 -24.6380 -24.6344 -24.6325 -11.9196 -10.8406  -8.0887  -7.0094
    -3.3127  -3.1017  -1.7832  -1.6966  -0.9886  -0.4694   1.2702   1.4970
     1.9856   2.4975   3.5316   3.6896   4.6833   5.0532   5.9503   6.0827
     6.3134   6.5218   7.4034   7.7503   8.0820   8.3364   8.6662   8.7024
     8.9098   9.3634   9.7500   9.7966  10.9163  11.0437  11.1549  11.4301
    11.5359  11.8088  12.2585  12.3195

          k = 0.3056 0.1343-0.1059 ( 14988 PWs)   bands (ev):

   -36.6541 -36.6538 -36.6534 -36.6532 -36.6388 -36.6385 -36.6298 -36.6296
   -36.6248 -36.6243 -24.6663 -24.6628 -24.6593 -24.6591 -24.6492 -24.6471
   -24.6382 -24.6381 -24.6343 -24.6325 -11.8580 -10.8194  -8.0627  -7.0218
    -3.5626  -3.2670  -2.1123  -1.7053  -0.8651  -0.6127   1.3260   1.6530
     1.7797   3.1446   3.5524   4.0625   4.7623   5.1519   5.9190   6.1981
     6.4099   6.5962   7.3715   7.9424   8.0963   8.3370   8.5143   8.8081
     9.0279   9.3125   9.6365   9.8760  10.4639  10.5484  10.9318  11.1601
    11.3904  12.0707  12.1682  12.3211

          k = 0.3056 0.1880-0.1059 ( 14990 PWs)   bands (ev):

   -36.6541 -36.6538 -36.6534 -36.6533 -36.6386 -36.6384 -36.6298 -36.6296
   -36.6248 -36.6243 -24.6662 -24.6630 -24.6594 -24.6592 -24.6489 -24.6469
   -24.6383 -24.6382 -24.6341 -24.6326 -11.7682 -10.7948  -8.0278  -7.0500
    -3.9506  -3.2124  -2.4902  -1.7359  -1.3524  -0.4030   1.2088   1.8526
     2.2120   3.4184   3.8932   4.1730   4.8784   5.3048   6.0286   6.3289
     6.6866   6.7595   7.2757   7.7357   8.0902   8.3782   8.6334   8.8255
     9.3518   9.4203   9.6433   9.9228  10.0328  10.1946  10.3619  10.7401
    11.1831  11.5750  11.9859  12.0934

          k = 0.3056 0.2417-0.1059 ( 14964 PWs)   bands (ev):

   -36.6541 -36.6538 -36.6534 -36.6533 -36.6384 -36.6382 -36.6298 -36.6297
   -36.6247 -36.6244 -24.6660 -24.6633 -24.6596 -24.6594 -24.6485 -24.6468
   -24.6384 -24.6383 -24.6340 -24.6326 -11.6536 -10.7756  -7.9865  -7.1027
    -4.2424  -3.1779  -2.7911  -1.8325  -1.7907  -0.5426   1.4324   2.0394
     2.7928   3.3884   4.1148   4.3977   5.0265   5.4955   6.2668   6.5021
     6.7176   7.1459   7.2367   7.4347   8.1937   8.6260   8.7311   8.8839
     9.1907   9.3643   9.6307   9.8166   9.9677   9.9691  10.4161  10.5862
    10.8132  10.9864  11.7187  12.0641

          k = 0.3056 0.2955-0.1059 ( 14950 PWs)   bands (ev):

   -36.6540 -36.6538 -36.6535 -36.6533 -36.6383 -36.6381 -36.6299 -36.6297
   -36.6247 -36.6244 -24.6657 -24.6635 -24.6597 -24.6595 -24.6481 -24.6467
   -24.6385 -24.6384 -24.6338 -24.6327 -11.5191 -10.7726  -7.9384  -7.1860
    -4.4226  -3.2305  -2.9954  -2.0756  -1.9909  -0.8439   1.7546   2.3717
     3.1626   3.4657   4.0353   4.7116   5.1972   5.7210   6.4974   6.5746
     6.7059   7.0611   7.4378   7.7666   8.1072   8.7310   8.7841   8.9558
     8.9698   9.2559   9.6463   9.8433   9.8688   9.9973  10.2593  10.5756
    10.6298  11.1920  11.6706  11.7479

          k = 0.3056 0.3492-0.1059 ( 14954 PWs)   bands (ev):

   -36.6540 -36.6538 -36.6535 -36.6534 -36.6381 -36.6380 -36.6299 -36.6297
   -36.6247 -36.6244 -24.6654 -24.6638 -24.6598 -24.6597 -24.6477 -24.6466
   -24.6386 -24.6385 -24.6336 -24.6328 -11.3716 -10.7968  -7.8787  -7.2991
    -4.4849  -3.4508  -3.0644  -2.2049  -2.1434  -1.1521   2.0109   2.8389
     3.0632   3.8536   4.0054   4.7659   5.3880   5.9791   6.4277   6.6041
     6.9173   7.0228   7.6396   7.7650   8.3229   8.3275   8.7044   9.0594
     9.0883   9.4389   9.7178   9.7415   9.9218  10.0887  10.3250  10.5938
    10.8100  11.2498  11.5610  11.7607

          k = 0.3056 0.4029-0.1059 ( 14966 PWs)   bands (ev):

   -36.6540 -36.6539 -36.6535 -36.6534 -36.6380 -36.6379 -36.6299 -36.6298
   -36.6246 -36.6245 -24.6651 -24.6641 -24.6599 -24.6598 -24.6473 -24.6467
   -24.6387 -24.6386 -24.6334 -24.6329 -11.2201 -10.8559  -7.7995  -7.4323
    -4.4332  -3.7538  -3.0211  -2.4501  -2.0533  -1.4278   2.2329   2.8783
     3.3403   4.0416   4.0984   4.5963   5.6215   6.2456   6.4288   6.5241
     6.9992   7.1013   7.4242   7.8871   7.9561   8.4655   8.8216   9.0369
     9.0806   9.5961   9.7606  10.0245  10.0974  10.4124  10.5735  10.8012
    11.0248  11.0682  11.1733  11.6031

          k = 0.3056 0.4566-0.1059 ( 14960 PWs)   bands (ev):

   -36.6540 -36.6539 -36.6535 -36.6534 -36.6380 -36.6378 -36.6299 -36.6298
   -36.6246 -36.6245 -24.6648 -24.6644 -24.6599 -24.6598 -24.6470 -24.6468
   -24.6387 -24.6386 -24.6332 -24.6330 -11.0758 -10.9509  -7.6958  -7.5698
    -4.2803  -4.0452  -2.8895  -2.6900  -1.8835  -1.6711   2.4503   2.6680
     3.8054   4.1107   4.1319   4.3089   5.9168   6.2225   6.5448   6.5502
     6.9497   7.0001   7.4233   7.6040   8.2760   8.4024   8.5666   8.7110
     9.6011  10.0005  10.0607  10.0720  10.1859  10.6018  10.7028  10.7338
    10.8459  11.1228  11.4498  11.6154

          k = 0.3611 0.0269-0.1059 ( 14996 PWs)   bands (ev):

   -36.6539 -36.6536 -36.6534 -36.6533 -36.6389 -36.6387 -36.6298 -36.6296
   -36.6246 -36.6243 -24.6658 -24.6630 -24.6593 -24.6591 -24.6492 -24.6475
   -24.6383 -24.6382 -24.6339 -24.6325 -11.7408 -10.8593  -8.2514  -7.3647
    -3.1687  -2.4042  -2.0173  -1.2645  -1.1701  -0.2805   1.1213   1.4611
     1.5755   2.0769   2.7441   3.2015   4.8974   5.3047   6.2310   6.3918
     6.7472   6.9327   7.4325   7.6033   7.9333   8.1342   8.4566   8.7942
     9.0511   9.2143   9.5350   9.9380  10.2494  10.7736  11.3254  11.6780
    11.9501  12.2753  12.3396  12.7422

          k = 0.3611 0.0806-0.1059 ( 15010 PWs)   bands (ev):

   -36.6539 -36.6536 -36.6534 -36.6533 -36.6388 -36.6386 -36.6298 -36.6297
   -36.6246 -36.6243 -24.6658 -24.6630 -24.6594 -24.6592 -24.6491 -24.6474
   -24.6383 -24.6382 -24.6339 -24.6325 -11.7119 -10.8473  -8.2252  -7.3548
    -3.1512  -2.9017  -1.8952  -1.5860  -0.8188  -0.6800   1.3616   1.4201
     1.8379   2.0252   3.2168   3.3299   4.9365   5.3429   6.0762   6.3969
     6.7776   6.9714   7.4124   7.5283   8.0333   8.3824   8.3946   8.8455
     8.8602   9.2987   9.4409   9.7909  10.6632  11.0429  11.1036  11.6136
    11.6558  11.9012  12.0944  12.3217

          k = 0.3611 0.1343-0.1059 ( 15016 PWs)   bands (ev):

   -36.6539 -36.6536 -36.6534 -36.6533 -36.6387 -36.6385 -36.6299 -36.6297
   -36.6246 -36.6243 -24.6657 -24.6631 -24.6595 -24.6593 -24.6489 -24.6473
   -24.6384 -24.6383 -24.6338 -24.6325 -11.6552 -10.8256  -8.1745  -7.3382
    -3.4018  -3.1233  -2.0236  -1.8866  -1.2047  -0.5140   1.1416   1.8707
     1.9745   2.6884   3.2654   3.8494   5.0124   5.4196   5.9052   6.4725
     6.8172   7.1066   7.3253   7.5886   7.8124   8.2446   8.7099   8.8497
     9.0656   9.4088   9.5700   9.6451  10.6678  10.8905  10.9623  11.1187
    11.4951  11.7334  11.8797  12.4487

          k = 0.3611 0.1880-0.1059 ( 15000 PWs)   bands (ev):

   -36.6539 -36.6536 -36.6535 -36.6533 -36.6386 -36.6384 -36.6299 -36.6297
   -36.6246 -36.6243 -24.6656 -24.6633 -24.6596 -24.6594 -24.6486 -24.6471
   -24.6385 -24.6384 -24.6337 -24.6325 -11.5730 -10.7993  -8.1027  -7.3213
    -3.8481  -3.1051  -2.4648  -1.9332  -1.6923  -0.5776   1.3301   2.0035
     2.5990   3.1177   3.5703   4.1156   5.1193   5.5639   5.9531   6.5953
     6.7735   7.2013   7.3309   7.5885   7.7350   8.2091   8.7997   8.9716
     9.2588   9.3720   9.7219  10.0666  10.1943  10.4738  10.5033  10.8161
    11.1378  11.7887  12.0495  12.0912

          k = 0.3611 0.2417-0.1059 ( 14994 PWs)   bands (ev):

   -36.6538 -36.6536 -36.6535 -36.6534 -36.6384 -36.6383 -36.6299 -36.6298
   -36.6246 -36.6243 -24.6654 -24.6634 -24.6597 -24.6596 -24.6482 -24.6470
   -24.6386 -24.6385 -24.6336 -24.6326 -11.4692 -10.7754  -8.0147  -7.3132
    -4.2129  -3.1433  -2.8699  -2.0422  -2.0399  -0.8694   1.7244   2.2783
     3.0461   3.3443   4.1058   4.1758   5.2470   5.7702   6.2508   6.5881
     6.7555   7.1235   7.4998   7.6068   7.9747   8.2956   8.7829   9.1135
     9.2805   9.3736   9.7584   9.8800   9.9920  10.0595  10.5507  10.8642
    10.8944  11.2677  11.7519  11.9248

          k = 0.3611 0.2955-0.1059 ( 14970 PWs)   bands (ev):

   -36.6538 -36.6537 -36.6535 -36.6534 -36.6383 -36.6381 -36.6299 -36.6298
   -36.6246 -36.6243 -24.6652 -24.6636 -24.6599 -24.6597 -24.6478 -24.6468
   -24.6387 -24.6386 -24.6334 -24.6326 -11.3493 -10.7631  -7.9163  -7.3235
    -4.4764  -3.3647  -3.1371  -2.2231  -2.1856  -1.1643   2.0070   2.7755
     3.0621   3.8279   4.0067   4.6936   5.3916   5.9961   6.4500   6.6140
     6.9413   6.9902   7.6369   7.8372   8.3091   8.4475   8.6971   8.9603
     9.0703   9.3895   9.6370   9.7793  10.0096  10.1174  10.4907  10.5941
    10.6555  11.2316  11.5144  11.7036

          k = 0.3611 0.3492-0.1059 ( 14958 PWs)   bands (ev):

   -36.6538 -36.6537 -36.6535 -36.6534 -36.6381 -36.6380 -36.6299 -36.6298
   -36.6245 -36.6244 -24.6650 -24.6639 -24.6600 -24.6599 -24.6475 -24.6467
   -24.6388 -24.6387 -24.6332 -24.6327 -11.2204 -10.7717  -7.8128  -7.3595
    -4.6244  -3.7332  -3.2371  -2.4727  -2.1633  -1.3980   2.2067   2.9856
     3.3583   3.9473   4.1437   4.9896   5.6047   6.2394   6.4737   6.8646
     6.8989   7.1224   7.8613   7.8833   8.4658   8.4693   8.5630   8.8542
     9.0859   9.4186   9.6247   9.9034   9.9655  10.2624  10.3695  10.3798
    10.6449  11.0361  11.0643  11.8050

          k = 0.3611 0.4029-0.1059 ( 14952 PWs)   bands (ev):

   -36.6538 -36.6537 -36.6535 -36.6534 -36.6380 -36.6379 -36.6300 -36.6298
   -36.6245 -36.6244 -24.6648 -24.6641 -24.6601 -24.6600 -24.6472 -24.6467
   -24.6389 -24.6388 -24.6331 -24.6327 -11.0918 -10.8087  -7.7080  -7.4225
    -4.6508  -4.0798  -3.2457  -2.7423  -2.0573  -1.5863   2.3847   2.8650
     3.8326   4.0477   4.2014   5.0186   5.9451   6.4755   6.6176   6.8900
     6.9038   7.2576   7.6507   8.1097   8.1935   8.3527   8.7370   8.8586
     9.3459   9.4286   9.7996   9.8284  10.0715  10.1489  10.4495  10.5397
    10.6649  10.7804  11.5182  11.6071

          k = 0.3611 0.4566-0.1059 ( 14942 PWs)   bands (ev):

   -36.6538 -36.6537 -36.6535 -36.6535 -36.6379 -36.6378 -36.6300 -36.6299
   -36.6245 -36.6244 -24.6646 -24.6643 -24.6601 -24.6600 -24.6469 -24.6467
   -24.6389 -24.6388 -24.6330 -24.6328 -10.9740 -10.8770  -7.6047  -7.5071
    -4.5595  -4.3631  -3.1577  -2.9823  -1.9142  -1.7552   2.5546   2.7170
     3.9821   4.1085   4.4669   4.8259   6.3374   6.6267   6.6956   6.7125
     7.0474   7.2742   7.5166   7.7455   8.4228   8.5394   8.6492   8.8579
     9.2406   9.5274   9.5757   9.9016  10.4035  10.4555  10.4985  10.6887
    10.8954  11.0598  11.3172  11.3815

          k = 0.4167 0.0269-0.1059 ( 15006 PWs)   bands (ev):

   -36.6537 -36.6535 -36.6534 -36.6533 -36.6389 -36.6387 -36.6299 -36.6297
   -36.6245 -36.6243 -24.6652 -24.6634 -24.6594 -24.6593 -24.6489 -24.6478
   -24.6384 -24.6383 -24.6335 -24.6326 -11.5157 -10.9380  -8.2819  -7.6991
    -2.9600  -2.3310  -1.9498  -1.2885  -0.9851  -0.3368   1.0891   1.2686
     1.4619   1.9269   2.3602   2.8608   5.2077   5.6508   6.2031   6.5977
     6.9247   7.0815   7.4113   7.8361   7.9670   8.1714   8.3238   8.7151
     9.1315   9.3485   9.4159   9.9520  10.2775  10.9110  10.9383  11.3575
    11.7055  11.9121  12.3286  12.7218

          k = 0.4167 0.0806-0.1059 ( 15030 PWs)   bands (ev):

   -36.6537 -36.6535 -36.6534 -36.6533 -36.6388 -36.6387 -36.6299 -36.6297
   -36.6245 -36.6243 -24.6651 -24.6634 -24.6595 -24.6593 -24.6488 -24.6478
   -24.6385 -24.6384 -24.6335 -24.6326 -11.4899 -10.9239  -8.2503  -7.6789
    -2.9525  -2.6794  -2.0604  -1.6318  -0.7801  -0.6581   1.1294   1.5612
     1.7297   1.9653   2.8909   2.9376   5.2408   5.6767   6.0828   6.6469
     6.9271   7.0865   7.1652   7.7365   8.0576   8.0599   8.4940   8.8854
     9.2413   9.2620   9.6399  10.0202  10.4243  10.8044  10.8451  11.3830
    11.4142  11.9563  12.3144  12.4375

          k = 0.4167 0.1343-0.1059 ( 15022 PWs)   bands (ev):

   -36.6537 -36.6535 -36.6534 -36.6534 -36.6387 -36.6386 -36.6299 -36.6298
   -36.6245 -36.6243 -24.6651 -24.6635 -24.6596 -24.6594 -24.6486 -24.6476
   -24.6385 -24.6384 -24.6334 -24.6326 -11.4395 -10.8979  -8.1885  -7.6410
    -3.1750  -2.9499  -2.1131  -2.1046  -1.2883  -0.6056   1.1801   2.0488
     2.2020   2.3395   2.9794   3.5472   5.3011   5.6788   5.9571   6.7381
     6.8353   7.0799   7.0912   7.5683   7.9804   8.1988   8.6493   9.0324
     9.0448   9.6983   9.8251  10.0243  10.4791  10.6462  11.1254  11.1504
    11.4170  11.4491  11.7477  12.5848

          k = 0.4167 0.1880-0.1059 ( 15000 PWs)   bands (ev):

   -36.6537 -36.6536 -36.6535 -36.6534 -36.6386 -36.6384 -36.6299 -36.6298
   -36.6245 -36.6243 -24.6650 -24.6636 -24.6597 -24.6596 -24.6483 -24.6474
   -24.6386 -24.6385 -24.6333 -24.6326 -11.3673 -10.8639  -8.1000  -7.5904
    -3.6548  -2.9941  -2.5983  -2.1643  -1.7204  -0.8823   1.6187   2.2091
     2.7261   2.9235   3.3118   3.9958   5.3742   5.6752   6.0149   6.6021
     6.8636   7.1105   7.1340   7.5878   7.9383   8.4107   8.7183   8.8499
     9.0902   9.9914  10.0358  10.0877  10.3740  10.6217  10.6906  11.0276
    11.2543  11.4589  11.9299  12.0348

          k = 0.4167 0.2417-0.1059 ( 14992 PWs)   bands (ev):

   -36.6537 -36.6536 -36.6535 -36.6534 -36.6384 -36.6383 -36.6299 -36.6298
   -36.6245 -36.6243 -24.6649 -24.6637 -24.6598 -24.6597 -24.6479 -24.6472
   -24.6388 -24.6387 -24.6332 -24.6326 -11.2776 -10.8282  -7.9901  -7.5346
    -4.0718  -3.2258  -2.9456  -2.2872  -1.9941  -1.2047   2.0178   2.5942
     2.8443   3.5767   3.9111   4.1250   5.4490   5.9223   6.1887   6.4401
     7.0117   7.0735   7.2754   7.7277   7.9262   8.6328   8.7109   8.8180
     9.1486   9.8394  10.0247  10.0279  10.1846  10.3309  10.8350  10.9854
    11.1949  11.4617  11.5401  11.6636

          k = 0.4167 0.2955-0.1059 ( 14970 PWs)   bands (ev):

   -36.6537 -36.6536 -36.6535 -36.6534 -36.6382 -36.6381 -36.6300 -36.6299
   -36.6245 -36.6243 -24.6648 -24.6638 -24.6600 -24.6599 -24.6476 -24.6470
   -24.6389 -24.6388 -24.6331 -24.6326 -11.1765 -10.7986  -7.8669  -7.4841
    -4.4022  -3.6300  -3.1530  -2.5021  -2.0849  -1.4384   2.2260   2.8738
     3.2068   4.0434   4.0593   4.5000   5.5934   6.2574   6.4665   6.5007
     6.9550   7.1606   7.4738   7.9269   8.0332   8.4681   8.8813   9.0270
     9.0905   9.6193   9.6322  10.0397  10.0566  10.4134  10.5615  10.7273
    10.9304  11.0687  11.3869  11.6380

          k = 0.4167 0.3492-0.1059 ( 14968 PWs)   bands (ev):

   -36.6537 -36.6537 -36.6535 -36.6534 -36.6381 -36.6380 -36.6300 -36.6299
   -36.6244 -36.6243 -24.6647 -24.6640 -24.6601 -24.6600 -24.6473 -24.6468
   -24.6390 -24.6389 -24.6330 -24.6326 -11.0716 -10.7836  -7.7412  -7.4501
    -4.6276  -4.0169  -3.3186  -2.7766  -2.0576  -1.5822   2.3783   2.8585
     3.7557   4.0690   4.1910   4.9638   5.9219   6.4826   6.6520   6.8435
     6.8875   7.2840   7.6877   8.1550   8.2474   8.3726   8.6503   8.8455
     9.3131   9.4730   9.7875   9.8370  10.0637  10.1563  10.3930  10.4922
    10.6114  10.7904  11.5656  11.5917

          k = 0.4167 0.4029-0.1059 ( 14960 PWs)   bands (ev):

   -36.6537 -36.6537 -36.6535 -36.6535 -36.6380 -36.6379 -36.6300 -36.6299
   -36.6244 -36.6243 -24.6646 -24.6641 -24.6602 -24.6601 -24.6470 -24.6467
   -24.6390 -24.6389 -24.6329 -24.6326 -10.9721 -10.7909  -7.6256  -7.4432
    -4.7346  -4.3417  -3.4022  -3.0445  -1.9778  -1.6855   2.5091   2.8049
     3.8627   4.1355   4.5137   5.2047   6.3494   6.6258   6.7490   6.9720
     7.1178   7.4081   7.7861   8.2700   8.3568   8.4799   8.5062   8.6669
     9.2124   9.4711   9.6963   9.8470   9.9446   9.9744  10.3672  10.4197
    10.6051  11.0593  11.2688  11.3199

          k = 0.4167 0.4566-0.1059 ( 14940 PWs)   bands (ev):

   -36.6537 -36.6537 -36.6535 -36.6535 -36.6379 -36.6378 -36.6300 -36.6299
   -36.6244 -36.6243 -24.6644 -24.6643 -24.6603 -24.6602 -24.6468 -24.6467
   -24.6391 -24.6390 -24.6328 -24.6326 -10.8873 -10.8254  -7.5323  -7.4702
    -4.7177  -4.5818  -3.3811  -3.2562  -1.8802  -1.7813   2.6232   2.7230
     3.9208   4.0225   4.9459   5.1919   6.6811   6.7000   6.7682   7.0580
     7.2867   7.5407   7.6967   7.9882   8.4857   8.6630   8.6942   8.7421
     9.1544   9.2333   9.3596   9.4707  10.1012  10.2571  10.3466  10.4963
    10.9687  11.1141  11.2096  11.3925

          k = 0.4722 0.0269-0.1059 ( 15026 PWs)   bands (ev):

   -36.6536 -36.6535 -36.6534 -36.6534 -36.6388 -36.6387 -36.6299 -36.6298
   -36.6244 -36.6243 -24.6645 -24.6639 -24.6595 -24.6594 -24.6485 -24.6482
   -24.6385 -24.6384 -24.6331 -24.6328 -11.2910 -11.0891  -8.1860  -7.9822
    -2.7279  -2.4970  -1.7118  -1.4579  -0.7337  -0.4978   1.0510   1.1995
     1.4753   1.7834   2.2965   2.5426   5.5538   5.9041   6.0486   6.4802
     6.9704   7.3083   7.4142   7.4272   8.1287   8.1718   8.5674   8.9593
     9.1582   9.4058   9.5380  10.0945  10.4263  10.5627  10.8294  11.3213
    11.3400  11.9007  11.9628  12.4372

          k = 0.4722 0.0806-0.1059 ( 15026 PWs)   bands (ev):

   -36.6536 -36.6535 -36.6534 -36.6534 -36.6388 -36.6387 -36.6299 -36.6298
   -36.6244 -36.6243 -24.6645 -24.6639 -24.6595 -24.6594 -24.6484 -24.6481
   -24.6386 -24.6385 -24.6331 -24.6328 -11.2689 -11.0713  -8.1546  -7.9549
    -2.7396  -2.5855  -2.0912  -1.8663  -0.6962  -0.6112   1.0683   1.2409
     2.0263   2.1407   2.5899   2.6045   5.5707   5.8637   6.0980   6.5045
     6.9148   7.1326   7.2182   7.4509   7.8875   8.1130   9.0711   9.1940
     9.3769   9.4889   9.5420  10.1362  10.4716  10.5348  10.7514  10.9628
    11.1603  12.0495  12.3690  12.4582

          k = 0.4722 0.1343-0.1059 ( 15016 PWs)   bands (ev):

   -36.6536 -36.6535 -36.6534 -36.6534 -36.6387 -36.6386 -36.6299 -36.6298
   -36.6244 -36.6243 -24.6645 -24.6640 -24.6596 -24.6595 -24.6482 -24.6479
   -24.6386 -24.6385 -24.6331 -24.6328 -11.2264 -11.0375  -8.0932  -7.9021
    -2.9220  -2.8115  -2.3317  -2.3085  -1.1046  -0.8400   1.4278   1.7930
     2.2750   2.4765   2.8971   3.1991   5.5860   5.7583   6.1891   6.5188
     6.7671   6.8802   7.1949   7.5070   7.8564   8.1766   9.1201   9.1316
     9.3483   9.9214   9.9914  10.2603  10.4386  10.6113  10.7050  10.8531
    11.2848  11.6395  12.0797  12.1005

          k = 0.4722 0.1880-0.1059 ( 14996 PWs)   bands (ev):

   -36.6536 -36.6536 -36.6534 -36.6534 -36.6385 -36.6384 -36.6299 -36.6298
   -36.6244 -36.6243 -24.6645 -24.6640 -24.6597 -24.6597 -24.6480 -24.6477
   -24.6387 -24.6386 -24.6330 -24.6327 -11.1665 -10.9913  -8.0054  -7.8278
    -3.3924  -3.1054  -2.6050  -2.4031  -1.5103  -1.2114   1.9784   2.3620
     2.4640   2.7502   3.4878   3.7782   5.5711   5.6418   6.3156   6.4643
     6.7393   6.8203   7.2686   7.5650   7.9488   8.2960   8.8289   8.9183
     9.5260  10.1180  10.1975  10.4213  10.5863  10.5922  10.9846  11.0287
    11.1576  11.3969  11.5008  11.7378

          k = 0.4722 0.2417-0.1059 ( 14992 PWs)   bands (ev):

   -36.6536 -36.6536 -36.6534 -36.6534 -36.6384 -36.6383 -36.6300 -36.6299
   -36.6244 -36.6243 -24.6645 -24.6640 -24.6599 -24.6598 -24.6477 -24.6474
   -24.6388 -24.6387 -24.6329 -24.6327 -11.0942 -10.9381  -7.8966  -7.7383
    -3.8390  -3.5391  -2.7801  -2.5453  -1.7879  -1.5155   2.2981   2.5752
     2.9658   3.3508   4.0045   4.1149   5.5897   5.7373   6.4675   6.4869
     6.8471   6.8824   7.3613   7.6013   8.1092   8.4190   8.6304   8.7135
     9.7201  10.1218  10.2743  10.2809  10.3821  10.5644  10.8047  11.0185
    11.0280  11.2448  11.3966  11.6916

          k = 0.4722 0.2955-0.1059 ( 14970 PWs)   bands (ev):

   -36.6537 -36.6536 -36.6534 -36.6534 -36.6382 -36.6381 -36.6300 -36.6299
   -36.6244 -36.6243 -24.6644 -24.6641 -24.6600 -24.6600 -24.6474 -24.6471
   -24.6389 -24.6389 -24.6328 -24.6327 -11.0160 -10.8850  -7.7759  -7.6431
    -4.2180  -3.9483  -3.0101  -2.7795  -1.9002  -1.6808   2.4409   2.6595
     3.6176   3.9529   4.1722   4.3075   5.8394   6.1287   6.6216   6.6271
     6.9246   7.0431   7.4415   7.6513   8.3206   8.4097   8.6075   8.7740
     9.5366   9.9032  10.0127  10.1192  10.2301  10.5745  10.6738  10.7500
    10.8672  11.1290  11.5470  11.5588

          k = 0.4722 0.3492-0.1059 ( 14964 PWs)   bands (ev):

   -36.6537 -36.6536 -36.6535 -36.6534 -36.6381 -36.6380 -36.6300 -36.6299
   -36.6244 -36.6243 -24.6644 -24.6642 -24.6602 -24.6601 -24.6471 -24.6469
   -24.6390 -24.6390 -24.6328 -24.6326 -10.9399 -10.8403  -7.6558  -7.5551
    -4.5081  -4.2918  -3.2453  -3.0504  -1.9085  -1.7474   2.5423   2.7046
     3.9402   4.0890   4.4206   4.7529   6.2829   6.5586   6.7416   6.7658
     7.0141   7.2915   7.5395   7.8003   8.4427   8.5666   8.6939   8.8537
     9.2269   9.4579   9.5144   9.8502  10.3690  10.4461  10.4952  10.6547
    10.8950  11.0812  11.2737  11.3151

          k = 0.4722 0.4029-0.1059 ( 14946 PWs)   bands (ev):

   -36.6537 -36.6537 -36.6535 -36.6534 -36.6380 -36.6379 -36.6300 -36.6299
   -36.6244 -36.6243 -24.6644 -24.6642 -24.6603 -24.6602 -24.6469 -24.6468
   -24.6391 -24.6390 -24.6327 -24.6326 -10.8747 -10.8122  -7.5528  -7.4900
    -4.6931  -4.5515  -3.4159  -3.2853  -1.8760  -1.7767   2.6163   2.7159
     3.9194   4.0238   4.9132   5.1551   6.6662   6.6715   6.7913   7.0595
     7.2791   7.5406   7.7275   8.0305   8.4806   8.6387   8.6809   8.7517
     9.1273   9.2344   9.3889   9.4580  10.0685  10.1937  10.3513  10.4967
    10.9203  10.9940  11.3152  11.4046

          k = 0.4722 0.4566-0.1059 ( 14946 PWs)   bands (ev):

   -36.6537 -36.6537 -36.6535 -36.6534 -36.6379 -36.6378 -36.6301 -36.6299
   -36.6244 -36.6243 -24.6643 -24.6642 -24.6603 -24.6602 -24.6468 -24.6467
   -24.6392 -24.6391 -24.6327 -24.6326 -10.8287 -10.8074  -7.4845  -7.4631
    -4.7622  -4.7126  -3.4844  -3.4383  -1.8357  -1.8020   2.6669   2.7004
     3.9176   3.9564   5.2383   5.3224   6.6801   6.6917   7.1030   7.2356
     7.5416   7.6734   7.9645   8.1690   8.3310   8.5136   8.5664   8.6815
     9.1392   9.1504   9.3657   9.6092   9.9296   9.9466  10.0756  10.2100
    10.7941  10.9260  11.4430  11.5161

     highest occupied, lowest unoccupied level (ev):     0.0851    1.0353

!    total energy              =    -632.72087677 Ry
     estimated scf accuracy    <          3.7E-10 Ry

     The total energy is the sum of the following terms:
     one-electron contribution =   -2665.03976041 Ry
     hartree contribution      =    1330.29856967 Ry
     xc contribution           =     -71.68931783 Ry
     ewald contribution        =     773.70963180 Ry

     convergence has been achieved in  10 iterations

     Writing output data file ./work/GeTe-mono.save/
 
     init_run     :      2.28s CPU      2.55s WALL (       1 calls)
     electrons    :     94.28s CPU    102.01s WALL (       1 calls)

     Called by init_run:
     wfcinit      :      1.92s CPU      2.15s WALL (       1 calls)
     potinit      :      0.10s CPU      0.11s WALL (       1 calls)
     hinit0       :      0.08s CPU      0.09s WALL (       1 calls)

     Called by electrons:
     c_bands      :     84.75s CPU     91.25s WALL (      11 calls)
     sum_band     :      9.20s CPU     10.34s WALL (      11 calls)
     v_of_rho     :      0.26s CPU      0.34s WALL (      11 calls)
     mix_rho      :      0.04s CPU      0.04s WALL (      11 calls)

     Called by c_bands:
     init_us_2    :      0.63s CPU      0.57s WALL (    1863 calls)
     cegterg      :     82.18s CPU     88.69s WALL (     891 calls)

     Called by *egterg:
     cdiaghg      :     20.13s CPU     20.59s WALL (    4851 calls)
     h_psi        :     54.53s CPU     60.44s WALL (    5013 calls)
     g_psi        :      0.16s CPU      0.19s WALL (    4041 calls)

     Called by h_psi:
     h_psi:calbec :      1.93s CPU      2.16s WALL (    5013 calls)
     vloc_psi     :     50.92s CPU     56.60s WALL (    5013 calls)
     add_vuspsi   :      1.34s CPU      1.38s WALL (    5013 calls)

     General routines
     calbec       :      1.91s CPU      2.14s WALL (    5013 calls)
     fft          :      0.17s CPU      0.25s WALL (     130 calls)
     ffts         :      0.00s CPU      0.01s WALL (      22 calls)
     fftw         :     55.52s CPU     62.04s WALL (  375522 calls)
     interpolate  :      0.01s CPU      0.02s WALL (      11 calls)
 
     Parallel routines
     fft_scatt_xy :      4.80s CPU      5.23s WALL (  375674 calls)
     fft_scatt_yz :     29.82s CPU     33.51s WALL (  375674 calls)
 
     PWSCF        :   1m37.40s CPU   1m46.29s WALL

 
   This run was terminated on:   7:24:46  13Sep2021            

=------------------------------------------------------------------------------=
   JOB DONE.
=------------------------------------------------------------------------------=
