
     Program PWSCF v.6.7MaX starts on 13Sep2021 at  7:24:47 

     This program is part of the open-source Quantum ESPRESSO suite
     for quantum simulation of materials; please cite
         "P. Giannozzi et al., J. Phys.:Condens. Matter 21 395502 (2009);
         "P. Giannozzi et al., J. Phys.:Condens. Matter 29 465901 (2017);
          URL http://www.quantum-espresso.org", 
     in publications or presentations arising from this work. More details at
     http://www.quantum-espresso.org/quote

     Parallel version (MPI), running on    32 processors

     MPI processes distributed on     1 nodes
     R & G space division:  proc/nbgrp/npool/nimage =      32
     Waiting for input...
     Reading input from standard input

     Current dimensions of program PWSCF are:
     Max number of different atomic species (ntypx) = 10
     Max number of k-points (npk) =  40000
     Max angular momentum in pseudopotentials (lmaxx) =  3

     Atomic positions and unit cell read from directory:
     ./work/GeTe-mono.save/
     Atomic positions from file used, from input discarded
 
     Message from routine read_pp_mesh:
     mesh size missing, using the one in header
     Message from routine read_pp_mesh:
     mesh size missing, using the one in header

     Subspace diagonalization in iterative solution of the eigenvalue problem:
     a serial algorithm will be used

     Message from routine setup:
     no reason to have ecutrho>4*ecutwfc
 
     Parallelization info
     --------------------
     sticks:   dense  smooth     PW     G-vecs:    dense   smooth      PW
     Min          98      32      9                19422     3726     575
     Max          99      33     10                19447     3747     596
     Sum        3163    1049    299               622029   119627   18573
 


     bravais-lattice index     =            0
     lattice parameter (alat)  =       8.0079  a.u.
     unit-cell volume          =    2506.4848 (a.u.)^3
     number of atoms/cell      =            4
     number of atomic types    =            2
     number of electrons       =        60.00
     number of Kohn-Sham states=           60
     kinetic-energy cutoff     =      50.0000  Ry
     charge density cutoff     =     600.0000  Ry
     Exchange-correlation= PBE
                           (   1   4   3   4   0   0   0)

     celldm(1)=   8.007887  celldm(2)=   0.000000  celldm(3)=   0.000000
     celldm(4)=   0.000000  celldm(5)=   0.000000  celldm(6)=   0.000000

     crystal axes: (cart. coord. in units of alat)
               a(1) = (   1.000000   0.000000   0.000000 )  
               a(2) = (   0.000000   1.034190   0.000000 )  
               a(3) = (   0.000000   0.000000   4.719662 )  

     reciprocal axes: (cart. coord. in units 2 pi/alat)
               b(1) = (  1.000000  0.000000  0.000000 )  
               b(2) = (  0.000000  0.966940  0.000000 )  
               b(3) = (  0.000000  0.000000  0.211880 )  


     PseudoPot. # 1 for Ge read from file:
     ../../pseudo/Ge_ONCV_PBE-1.2.upf
     MD5 check sum: 9f45083245c564cb2163622d60d05ca9
     Pseudo is Norm-conserving, Zval = 14.0
     Generated using ONCVPSP code by D. R. Hamann
     Using radial grid of  602 points,  6 beta functions with: 
                l(1) =   0
                l(2) =   0
                l(3) =   1
                l(4) =   1
                l(5) =   2
                l(6) =   2

     PseudoPot. # 2 for Te read from file:
     ../../pseudo/Te_ONCV_PBE-1.2.upf
     MD5 check sum: dd4de4dac1e38587f63aaf3700bb29d3
     Pseudo is Norm-conserving, Zval = 16.0
     Generated using ONCVPSP code by D. R. Hamann
     Using radial grid of  602 points,  6 beta functions with: 
                l(1) =   0
                l(2) =   0
                l(3) =   1
                l(4) =   1
                l(5) =   2
                l(6) =   2

     atomic species   valence    mass     pseudopotential
        Ge            14.00    72.63000     Ge( 1.00)
        Te            16.00   127.60000     Te( 1.00)

     No symmetry found


                                    s                        frac. trans.

      isym =  1     identity                                     

 cryst.   s( 1) = (     1          0          0      )
                  (     0          1          0      )
                  (     0          0          1      )

 cart.    s( 1) = (  1.0000000  0.0000000  0.0000000 )
                  (  0.0000000  1.0000000  0.0000000 )
                  (  0.0000000  0.0000000  1.0000000 )


   Cartesian axes

     site n.     atom                  positions (alat units)
         1           Ge  tau(   1) = (   0.0000000   0.4852822   1.6614487  )
         2           Ge  tau(   2) = (   0.5000000   1.0023560   1.0938804  )
         3           Te  tau(   3) = (   0.5000000   0.0318432   1.7374834  )
         4           Te  tau(   4) = (   0.0000000   0.5488986   1.0178653  )

   Crystallographic axes

     site n.     atom                  positions (cryst. coord.)
         1           Ge  tau(   1) = (  0.0000000  0.4692389  0.3520270  )
         2           Ge  tau(   2) = (  0.5000000  0.9692184  0.2317709  )
         3           Te  tau(   3) = (  0.5000000  0.0307905  0.3681372  )
         4           Te  tau(   4) = (  0.0000000  0.5307522  0.2156648  )

     number of k points=  2304
                       cart. coord. in units 2pi/alat
        k(    1) = (   0.0104167   0.0100723  -0.1059398), wk =   0.0008681
        k(    2) = (   0.0104167   0.0302169  -0.1059398), wk =   0.0008681
        k(    3) = (   0.0104167   0.0503615  -0.1059398), wk =   0.0008681
        k(    4) = (   0.0104167   0.0705061  -0.1059398), wk =   0.0008681
        k(    5) = (   0.0104167   0.0906507  -0.1059398), wk =   0.0008681
        k(    6) = (   0.0104167   0.1107952  -0.1059398), wk =   0.0008681
        k(    7) = (   0.0104167   0.1309398  -0.1059398), wk =   0.0008681
        k(    8) = (   0.0104167   0.1510844  -0.1059398), wk =   0.0008681
        k(    9) = (   0.0104167   0.1712290  -0.1059398), wk =   0.0008681
        k(   10) = (   0.0104167   0.1913736  -0.1059398), wk =   0.0008681
        k(   11) = (   0.0104167   0.2115182  -0.1059398), wk =   0.0008681
        k(   12) = (   0.0104167   0.2316628  -0.1059398), wk =   0.0008681
        k(   13) = (   0.0104167   0.2518074  -0.1059398), wk =   0.0008681
        k(   14) = (   0.0104167   0.2719520  -0.1059398), wk =   0.0008681
        k(   15) = (   0.0104167   0.2920965  -0.1059398), wk =   0.0008681
        k(   16) = (   0.0104167   0.3122411  -0.1059398), wk =   0.0008681
        k(   17) = (   0.0104167   0.3323857  -0.1059398), wk =   0.0008681
        k(   18) = (   0.0104167   0.3525303  -0.1059398), wk =   0.0008681
        k(   19) = (   0.0104167   0.3726749  -0.1059398), wk =   0.0008681
        k(   20) = (   0.0104167   0.3928195  -0.1059398), wk =   0.0008681
        k(   21) = (   0.0104167   0.4129641  -0.1059398), wk =   0.0008681
        k(   22) = (   0.0104167   0.4331087  -0.1059398), wk =   0.0008681
        k(   23) = (   0.0104167   0.4532533  -0.1059398), wk =   0.0008681
        k(   24) = (   0.0104167   0.4733978  -0.1059398), wk =   0.0008681
        k(   25) = (   0.0104167  -0.4733978  -0.1059398), wk =   0.0008681
        k(   26) = (   0.0104167  -0.4532533  -0.1059398), wk =   0.0008681
        k(   27) = (   0.0104167  -0.4331087  -0.1059398), wk =   0.0008681
        k(   28) = (   0.0104167  -0.4129641  -0.1059398), wk =   0.0008681
        k(   29) = (   0.0104167  -0.3928195  -0.1059398), wk =   0.0008681
        k(   30) = (   0.0104167  -0.3726749  -0.1059398), wk =   0.0008681
        k(   31) = (   0.0104167  -0.3525303  -0.1059398), wk =   0.0008681
        k(   32) = (   0.0104167  -0.3323857  -0.1059398), wk =   0.0008681
        k(   33) = (   0.0104167  -0.3122411  -0.1059398), wk =   0.0008681
        k(   34) = (   0.0104167  -0.2920965  -0.1059398), wk =   0.0008681
        k(   35) = (   0.0104167  -0.2719520  -0.1059398), wk =   0.0008681
        k(   36) = (   0.0104167  -0.2518074  -0.1059398), wk =   0.0008681
        k(   37) = (   0.0104167  -0.2316628  -0.1059398), wk =   0.0008681
        k(   38) = (   0.0104167  -0.2115182  -0.1059398), wk =   0.0008681
        k(   39) = (   0.0104167  -0.1913736  -0.1059398), wk =   0.0008681
        k(   40) = (   0.0104167  -0.1712290  -0.1059398), wk =   0.0008681
        k(   41) = (   0.0104167  -0.1510844  -0.1059398), wk =   0.0008681
        k(   42) = (   0.0104167  -0.1309398  -0.1059398), wk =   0.0008681
        k(   43) = (   0.0104167  -0.1107952  -0.1059398), wk =   0.0008681
        k(   44) = (   0.0104167  -0.0906507  -0.1059398), wk =   0.0008681
        k(   45) = (   0.0104167  -0.0705061  -0.1059398), wk =   0.0008681
        k(   46) = (   0.0104167  -0.0503615  -0.1059398), wk =   0.0008681
        k(   47) = (   0.0104167  -0.0302169  -0.1059398), wk =   0.0008681
        k(   48) = (   0.0104167  -0.0100723  -0.1059398), wk =   0.0008681
        k(   49) = (   0.0312500   0.0100723  -0.1059398), wk =   0.0008681
        k(   50) = (   0.0312500   0.0302169  -0.1059398), wk =   0.0008681
        k(   51) = (   0.0312500   0.0503615  -0.1059398), wk =   0.0008681
        k(   52) = (   0.0312500   0.0705061  -0.1059398), wk =   0.0008681
        k(   53) = (   0.0312500   0.0906507  -0.1059398), wk =   0.0008681
        k(   54) = (   0.0312500   0.1107952  -0.1059398), wk =   0.0008681
        k(   55) = (   0.0312500   0.1309398  -0.1059398), wk =   0.0008681
        k(   56) = (   0.0312500   0.1510844  -0.1059398), wk =   0.0008681
        k(   57) = (   0.0312500   0.1712290  -0.1059398), wk =   0.0008681
        k(   58) = (   0.0312500   0.1913736  -0.1059398), wk =   0.0008681
        k(   59) = (   0.0312500   0.2115182  -0.1059398), wk =   0.0008681
        k(   60) = (   0.0312500   0.2316628  -0.1059398), wk =   0.0008681
        k(   61) = (   0.0312500   0.2518074  -0.1059398), wk =   0.0008681
        k(   62) = (   0.0312500   0.2719520  -0.1059398), wk =   0.0008681
        k(   63) = (   0.0312500   0.2920965  -0.1059398), wk =   0.0008681
        k(   64) = (   0.0312500   0.3122411  -0.1059398), wk =   0.0008681
        k(   65) = (   0.0312500   0.3323857  -0.1059398), wk =   0.0008681
        k(   66) = (   0.0312500   0.3525303  -0.1059398), wk =   0.0008681
        k(   67) = (   0.0312500   0.3726749  -0.1059398), wk =   0.0008681
        k(   68) = (   0.0312500   0.3928195  -0.1059398), wk =   0.0008681
        k(   69) = (   0.0312500   0.4129641  -0.1059398), wk =   0.0008681
        k(   70) = (   0.0312500   0.4331087  -0.1059398), wk =   0.0008681
        k(   71) = (   0.0312500   0.4532533  -0.1059398), wk =   0.0008681
        k(   72) = (   0.0312500   0.4733978  -0.1059398), wk =   0.0008681
        k(   73) = (   0.0312500  -0.4733978  -0.1059398), wk =   0.0008681
        k(   74) = (   0.0312500  -0.4532533  -0.1059398), wk =   0.0008681
        k(   75) = (   0.0312500  -0.4331087  -0.1059398), wk =   0.0008681
        k(   76) = (   0.0312500  -0.4129641  -0.1059398), wk =   0.0008681
        k(   77) = (   0.0312500  -0.3928195  -0.1059398), wk =   0.0008681
        k(   78) = (   0.0312500  -0.3726749  -0.1059398), wk =   0.0008681
        k(   79) = (   0.0312500  -0.3525303  -0.1059398), wk =   0.0008681
        k(   80) = (   0.0312500  -0.3323857  -0.1059398), wk =   0.0008681
        k(   81) = (   0.0312500  -0.3122411  -0.1059398), wk =   0.0008681
        k(   82) = (   0.0312500  -0.2920965  -0.1059398), wk =   0.0008681
        k(   83) = (   0.0312500  -0.2719520  -0.1059398), wk =   0.0008681
        k(   84) = (   0.0312500  -0.2518074  -0.1059398), wk =   0.0008681
        k(   85) = (   0.0312500  -0.2316628  -0.1059398), wk =   0.0008681
        k(   86) = (   0.0312500  -0.2115182  -0.1059398), wk =   0.0008681
        k(   87) = (   0.0312500  -0.1913736  -0.1059398), wk =   0.0008681
        k(   88) = (   0.0312500  -0.1712290  -0.1059398), wk =   0.0008681
        k(   89) = (   0.0312500  -0.1510844  -0.1059398), wk =   0.0008681
        k(   90) = (   0.0312500  -0.1309398  -0.1059398), wk =   0.0008681
        k(   91) = (   0.0312500  -0.1107952  -0.1059398), wk =   0.0008681
        k(   92) = (   0.0312500  -0.0906507  -0.1059398), wk =   0.0008681
        k(   93) = (   0.0312500  -0.0705061  -0.1059398), wk =   0.0008681
        k(   94) = (   0.0312500  -0.0503615  -0.1059398), wk =   0.0008681
        k(   95) = (   0.0312500  -0.0302169  -0.1059398), wk =   0.0008681
        k(   96) = (   0.0312500  -0.0100723  -0.1059398), wk =   0.0008681
        k(   97) = (   0.0520833   0.0100723  -0.1059398), wk =   0.0008681
        k(   98) = (   0.0520833   0.0302169  -0.1059398), wk =   0.0008681
        k(   99) = (   0.0520833   0.0503615  -0.1059398), wk =   0.0008681
        k(  100) = (   0.0520833   0.0705061  -0.1059398), wk =   0.0008681
        k(  101) = (   0.0520833   0.0906507  -0.1059398), wk =   0.0008681
        k(  102) = (   0.0520833   0.1107952  -0.1059398), wk =   0.0008681
        k(  103) = (   0.0520833   0.1309398  -0.1059398), wk =   0.0008681
        k(  104) = (   0.0520833   0.1510844  -0.1059398), wk =   0.0008681
        k(  105) = (   0.0520833   0.1712290  -0.1059398), wk =   0.0008681
        k(  106) = (   0.0520833   0.1913736  -0.1059398), wk =   0.0008681
        k(  107) = (   0.0520833   0.2115182  -0.1059398), wk =   0.0008681
        k(  108) = (   0.0520833   0.2316628  -0.1059398), wk =   0.0008681
        k(  109) = (   0.0520833   0.2518074  -0.1059398), wk =   0.0008681
        k(  110) = (   0.0520833   0.2719520  -0.1059398), wk =   0.0008681
        k(  111) = (   0.0520833   0.2920965  -0.1059398), wk =   0.0008681
        k(  112) = (   0.0520833   0.3122411  -0.1059398), wk =   0.0008681
        k(  113) = (   0.0520833   0.3323857  -0.1059398), wk =   0.0008681
        k(  114) = (   0.0520833   0.3525303  -0.1059398), wk =   0.0008681
        k(  115) = (   0.0520833   0.3726749  -0.1059398), wk =   0.0008681
        k(  116) = (   0.0520833   0.3928195  -0.1059398), wk =   0.0008681
        k(  117) = (   0.0520833   0.4129641  -0.1059398), wk =   0.0008681
        k(  118) = (   0.0520833   0.4331087  -0.1059398), wk =   0.0008681
        k(  119) = (   0.0520833   0.4532533  -0.1059398), wk =   0.0008681
        k(  120) = (   0.0520833   0.4733978  -0.1059398), wk =   0.0008681
        k(  121) = (   0.0520833  -0.4733978  -0.1059398), wk =   0.0008681
        k(  122) = (   0.0520833  -0.4532533  -0.1059398), wk =   0.0008681
        k(  123) = (   0.0520833  -0.4331087  -0.1059398), wk =   0.0008681
        k(  124) = (   0.0520833  -0.4129641  -0.1059398), wk =   0.0008681
        k(  125) = (   0.0520833  -0.3928195  -0.1059398), wk =   0.0008681
        k(  126) = (   0.0520833  -0.3726749  -0.1059398), wk =   0.0008681
        k(  127) = (   0.0520833  -0.3525303  -0.1059398), wk =   0.0008681
        k(  128) = (   0.0520833  -0.3323857  -0.1059398), wk =   0.0008681
        k(  129) = (   0.0520833  -0.3122411  -0.1059398), wk =   0.0008681
        k(  130) = (   0.0520833  -0.2920965  -0.1059398), wk =   0.0008681
        k(  131) = (   0.0520833  -0.2719520  -0.1059398), wk =   0.0008681
        k(  132) = (   0.0520833  -0.2518074  -0.1059398), wk =   0.0008681
        k(  133) = (   0.0520833  -0.2316628  -0.1059398), wk =   0.0008681
        k(  134) = (   0.0520833  -0.2115182  -0.1059398), wk =   0.0008681
        k(  135) = (   0.0520833  -0.1913736  -0.1059398), wk =   0.0008681
        k(  136) = (   0.0520833  -0.1712290  -0.1059398), wk =   0.0008681
        k(  137) = (   0.0520833  -0.1510844  -0.1059398), wk =   0.0008681
        k(  138) = (   0.0520833  -0.1309398  -0.1059398), wk =   0.0008681
        k(  139) = (   0.0520833  -0.1107952  -0.1059398), wk =   0.0008681
        k(  140) = (   0.0520833  -0.0906507  -0.1059398), wk =   0.0008681
        k(  141) = (   0.0520833  -0.0705061  -0.1059398), wk =   0.0008681
        k(  142) = (   0.0520833  -0.0503615  -0.1059398), wk =   0.0008681
        k(  143) = (   0.0520833  -0.0302169  -0.1059398), wk =   0.0008681
        k(  144) = (   0.0520833  -0.0100723  -0.1059398), wk =   0.0008681
        k(  145) = (   0.0729167   0.0100723  -0.1059398), wk =   0.0008681
        k(  146) = (   0.0729167   0.0302169  -0.1059398), wk =   0.0008681
        k(  147) = (   0.0729167   0.0503615  -0.1059398), wk =   0.0008681
        k(  148) = (   0.0729167   0.0705061  -0.1059398), wk =   0.0008681
        k(  149) = (   0.0729167   0.0906507  -0.1059398), wk =   0.0008681
        k(  150) = (   0.0729167   0.1107952  -0.1059398), wk =   0.0008681
        k(  151) = (   0.0729167   0.1309398  -0.1059398), wk =   0.0008681
        k(  152) = (   0.0729167   0.1510844  -0.1059398), wk =   0.0008681
        k(  153) = (   0.0729167   0.1712290  -0.1059398), wk =   0.0008681
        k(  154) = (   0.0729167   0.1913736  -0.1059398), wk =   0.0008681
        k(  155) = (   0.0729167   0.2115182  -0.1059398), wk =   0.0008681
        k(  156) = (   0.0729167   0.2316628  -0.1059398), wk =   0.0008681
        k(  157) = (   0.0729167   0.2518074  -0.1059398), wk =   0.0008681
        k(  158) = (   0.0729167   0.2719520  -0.1059398), wk =   0.0008681
        k(  159) = (   0.0729167   0.2920965  -0.1059398), wk =   0.0008681
        k(  160) = (   0.0729167   0.3122411  -0.1059398), wk =   0.0008681
        k(  161) = (   0.0729167   0.3323857  -0.1059398), wk =   0.0008681
        k(  162) = (   0.0729167   0.3525303  -0.1059398), wk =   0.0008681
        k(  163) = (   0.0729167   0.3726749  -0.1059398), wk =   0.0008681
        k(  164) = (   0.0729167   0.3928195  -0.1059398), wk =   0.0008681
        k(  165) = (   0.0729167   0.4129641  -0.1059398), wk =   0.0008681
        k(  166) = (   0.0729167   0.4331087  -0.1059398), wk =   0.0008681
        k(  167) = (   0.0729167   0.4532533  -0.1059398), wk =   0.0008681
        k(  168) = (   0.0729167   0.4733978  -0.1059398), wk =   0.0008681
        k(  169) = (   0.0729167  -0.4733978  -0.1059398), wk =   0.0008681
        k(  170) = (   0.0729167  -0.4532533  -0.1059398), wk =   0.0008681
        k(  171) = (   0.0729167  -0.4331087  -0.1059398), wk =   0.0008681
        k(  172) = (   0.0729167  -0.4129641  -0.1059398), wk =   0.0008681
        k(  173) = (   0.0729167  -0.3928195  -0.1059398), wk =   0.0008681
        k(  174) = (   0.0729167  -0.3726749  -0.1059398), wk =   0.0008681
        k(  175) = (   0.0729167  -0.3525303  -0.1059398), wk =   0.0008681
        k(  176) = (   0.0729167  -0.3323857  -0.1059398), wk =   0.0008681
        k(  177) = (   0.0729167  -0.3122411  -0.1059398), wk =   0.0008681
        k(  178) = (   0.0729167  -0.2920965  -0.1059398), wk =   0.0008681
        k(  179) = (   0.0729167  -0.2719520  -0.1059398), wk =   0.0008681
        k(  180) = (   0.0729167  -0.2518074  -0.1059398), wk =   0.0008681
        k(  181) = (   0.0729167  -0.2316628  -0.1059398), wk =   0.0008681
        k(  182) = (   0.0729167  -0.2115182  -0.1059398), wk =   0.0008681
        k(  183) = (   0.0729167  -0.1913736  -0.1059398), wk =   0.0008681
        k(  184) = (   0.0729167  -0.1712290  -0.1059398), wk =   0.0008681
        k(  185) = (   0.0729167  -0.1510844  -0.1059398), wk =   0.0008681
        k(  186) = (   0.0729167  -0.1309398  -0.1059398), wk =   0.0008681
        k(  187) = (   0.0729167  -0.1107952  -0.1059398), wk =   0.0008681
        k(  188) = (   0.0729167  -0.0906507  -0.1059398), wk =   0.0008681
        k(  189) = (   0.0729167  -0.0705061  -0.1059398), wk =   0.0008681
        k(  190) = (   0.0729167  -0.0503615  -0.1059398), wk =   0.0008681
        k(  191) = (   0.0729167  -0.0302169  -0.1059398), wk =   0.0008681
        k(  192) = (   0.0729167  -0.0100723  -0.1059398), wk =   0.0008681
        k(  193) = (   0.0937500   0.0100723  -0.1059398), wk =   0.0008681
        k(  194) = (   0.0937500   0.0302169  -0.1059398), wk =   0.0008681
        k(  195) = (   0.0937500   0.0503615  -0.1059398), wk =   0.0008681
        k(  196) = (   0.0937500   0.0705061  -0.1059398), wk =   0.0008681
        k(  197) = (   0.0937500   0.0906507  -0.1059398), wk =   0.0008681
        k(  198) = (   0.0937500   0.1107952  -0.1059398), wk =   0.0008681
        k(  199) = (   0.0937500   0.1309398  -0.1059398), wk =   0.0008681
        k(  200) = (   0.0937500   0.1510844  -0.1059398), wk =   0.0008681
        k(  201) = (   0.0937500   0.1712290  -0.1059398), wk =   0.0008681
        k(  202) = (   0.0937500   0.1913736  -0.1059398), wk =   0.0008681
        k(  203) = (   0.0937500   0.2115182  -0.1059398), wk =   0.0008681
        k(  204) = (   0.0937500   0.2316628  -0.1059398), wk =   0.0008681
        k(  205) = (   0.0937500   0.2518074  -0.1059398), wk =   0.0008681
        k(  206) = (   0.0937500   0.2719520  -0.1059398), wk =   0.0008681
        k(  207) = (   0.0937500   0.2920965  -0.1059398), wk =   0.0008681
        k(  208) = (   0.0937500   0.3122411  -0.1059398), wk =   0.0008681
        k(  209) = (   0.0937500   0.3323857  -0.1059398), wk =   0.0008681
        k(  210) = (   0.0937500   0.3525303  -0.1059398), wk =   0.0008681
        k(  211) = (   0.0937500   0.3726749  -0.1059398), wk =   0.0008681
        k(  212) = (   0.0937500   0.3928195  -0.1059398), wk =   0.0008681
        k(  213) = (   0.0937500   0.4129641  -0.1059398), wk =   0.0008681
        k(  214) = (   0.0937500   0.4331087  -0.1059398), wk =   0.0008681
        k(  215) = (   0.0937500   0.4532533  -0.1059398), wk =   0.0008681
        k(  216) = (   0.0937500   0.4733978  -0.1059398), wk =   0.0008681
        k(  217) = (   0.0937500  -0.4733978  -0.1059398), wk =   0.0008681
        k(  218) = (   0.0937500  -0.4532533  -0.1059398), wk =   0.0008681
        k(  219) = (   0.0937500  -0.4331087  -0.1059398), wk =   0.0008681
        k(  220) = (   0.0937500  -0.4129641  -0.1059398), wk =   0.0008681
        k(  221) = (   0.0937500  -0.3928195  -0.1059398), wk =   0.0008681
        k(  222) = (   0.0937500  -0.3726749  -0.1059398), wk =   0.0008681
        k(  223) = (   0.0937500  -0.3525303  -0.1059398), wk =   0.0008681
        k(  224) = (   0.0937500  -0.3323857  -0.1059398), wk =   0.0008681
        k(  225) = (   0.0937500  -0.3122411  -0.1059398), wk =   0.0008681
        k(  226) = (   0.0937500  -0.2920965  -0.1059398), wk =   0.0008681
        k(  227) = (   0.0937500  -0.2719520  -0.1059398), wk =   0.0008681
        k(  228) = (   0.0937500  -0.2518074  -0.1059398), wk =   0.0008681
        k(  229) = (   0.0937500  -0.2316628  -0.1059398), wk =   0.0008681
        k(  230) = (   0.0937500  -0.2115182  -0.1059398), wk =   0.0008681
        k(  231) = (   0.0937500  -0.1913736  -0.1059398), wk =   0.0008681
        k(  232) = (   0.0937500  -0.1712290  -0.1059398), wk =   0.0008681
        k(  233) = (   0.0937500  -0.1510844  -0.1059398), wk =   0.0008681
        k(  234) = (   0.0937500  -0.1309398  -0.1059398), wk =   0.0008681
        k(  235) = (   0.0937500  -0.1107952  -0.1059398), wk =   0.0008681
        k(  236) = (   0.0937500  -0.0906507  -0.1059398), wk =   0.0008681
        k(  237) = (   0.0937500  -0.0705061  -0.1059398), wk =   0.0008681
        k(  238) = (   0.0937500  -0.0503615  -0.1059398), wk =   0.0008681
        k(  239) = (   0.0937500  -0.0302169  -0.1059398), wk =   0.0008681
        k(  240) = (   0.0937500  -0.0100723  -0.1059398), wk =   0.0008681
        k(  241) = (   0.1145833   0.0100723  -0.1059398), wk =   0.0008681
        k(  242) = (   0.1145833   0.0302169  -0.1059398), wk =   0.0008681
        k(  243) = (   0.1145833   0.0503615  -0.1059398), wk =   0.0008681
        k(  244) = (   0.1145833   0.0705061  -0.1059398), wk =   0.0008681
        k(  245) = (   0.1145833   0.0906507  -0.1059398), wk =   0.0008681
        k(  246) = (   0.1145833   0.1107952  -0.1059398), wk =   0.0008681
        k(  247) = (   0.1145833   0.1309398  -0.1059398), wk =   0.0008681
        k(  248) = (   0.1145833   0.1510844  -0.1059398), wk =   0.0008681
        k(  249) = (   0.1145833   0.1712290  -0.1059398), wk =   0.0008681
        k(  250) = (   0.1145833   0.1913736  -0.1059398), wk =   0.0008681
        k(  251) = (   0.1145833   0.2115182  -0.1059398), wk =   0.0008681
        k(  252) = (   0.1145833   0.2316628  -0.1059398), wk =   0.0008681
        k(  253) = (   0.1145833   0.2518074  -0.1059398), wk =   0.0008681
        k(  254) = (   0.1145833   0.2719520  -0.1059398), wk =   0.0008681
        k(  255) = (   0.1145833   0.2920965  -0.1059398), wk =   0.0008681
        k(  256) = (   0.1145833   0.3122411  -0.1059398), wk =   0.0008681
        k(  257) = (   0.1145833   0.3323857  -0.1059398), wk =   0.0008681
        k(  258) = (   0.1145833   0.3525303  -0.1059398), wk =   0.0008681
        k(  259) = (   0.1145833   0.3726749  -0.1059398), wk =   0.0008681
        k(  260) = (   0.1145833   0.3928195  -0.1059398), wk =   0.0008681
        k(  261) = (   0.1145833   0.4129641  -0.1059398), wk =   0.0008681
        k(  262) = (   0.1145833   0.4331087  -0.1059398), wk =   0.0008681
        k(  263) = (   0.1145833   0.4532533  -0.1059398), wk =   0.0008681
        k(  264) = (   0.1145833   0.4733978  -0.1059398), wk =   0.0008681
        k(  265) = (   0.1145833  -0.4733978  -0.1059398), wk =   0.0008681
        k(  266) = (   0.1145833  -0.4532533  -0.1059398), wk =   0.0008681
        k(  267) = (   0.1145833  -0.4331087  -0.1059398), wk =   0.0008681
        k(  268) = (   0.1145833  -0.4129641  -0.1059398), wk =   0.0008681
        k(  269) = (   0.1145833  -0.3928195  -0.1059398), wk =   0.0008681
        k(  270) = (   0.1145833  -0.3726749  -0.1059398), wk =   0.0008681
        k(  271) = (   0.1145833  -0.3525303  -0.1059398), wk =   0.0008681
        k(  272) = (   0.1145833  -0.3323857  -0.1059398), wk =   0.0008681
        k(  273) = (   0.1145833  -0.3122411  -0.1059398), wk =   0.0008681
        k(  274) = (   0.1145833  -0.2920965  -0.1059398), wk =   0.0008681
        k(  275) = (   0.1145833  -0.2719520  -0.1059398), wk =   0.0008681
        k(  276) = (   0.1145833  -0.2518074  -0.1059398), wk =   0.0008681
        k(  277) = (   0.1145833  -0.2316628  -0.1059398), wk =   0.0008681
        k(  278) = (   0.1145833  -0.2115182  -0.1059398), wk =   0.0008681
        k(  279) = (   0.1145833  -0.1913736  -0.1059398), wk =   0.0008681
        k(  280) = (   0.1145833  -0.1712290  -0.1059398), wk =   0.0008681
        k(  281) = (   0.1145833  -0.1510844  -0.1059398), wk =   0.0008681
        k(  282) = (   0.1145833  -0.1309398  -0.1059398), wk =   0.0008681
        k(  283) = (   0.1145833  -0.1107952  -0.1059398), wk =   0.0008681
        k(  284) = (   0.1145833  -0.0906507  -0.1059398), wk =   0.0008681
        k(  285) = (   0.1145833  -0.0705061  -0.1059398), wk =   0.0008681
        k(  286) = (   0.1145833  -0.0503615  -0.1059398), wk =   0.0008681
        k(  287) = (   0.1145833  -0.0302169  -0.1059398), wk =   0.0008681
        k(  288) = (   0.1145833  -0.0100723  -0.1059398), wk =   0.0008681
        k(  289) = (   0.1354167   0.0100723  -0.1059398), wk =   0.0008681
        k(  290) = (   0.1354167   0.0302169  -0.1059398), wk =   0.0008681
        k(  291) = (   0.1354167   0.0503615  -0.1059398), wk =   0.0008681
        k(  292) = (   0.1354167   0.0705061  -0.1059398), wk =   0.0008681
        k(  293) = (   0.1354167   0.0906507  -0.1059398), wk =   0.0008681
        k(  294) = (   0.1354167   0.1107952  -0.1059398), wk =   0.0008681
        k(  295) = (   0.1354167   0.1309398  -0.1059398), wk =   0.0008681
        k(  296) = (   0.1354167   0.1510844  -0.1059398), wk =   0.0008681
        k(  297) = (   0.1354167   0.1712290  -0.1059398), wk =   0.0008681
        k(  298) = (   0.1354167   0.1913736  -0.1059398), wk =   0.0008681
        k(  299) = (   0.1354167   0.2115182  -0.1059398), wk =   0.0008681
        k(  300) = (   0.1354167   0.2316628  -0.1059398), wk =   0.0008681
        k(  301) = (   0.1354167   0.2518074  -0.1059398), wk =   0.0008681
        k(  302) = (   0.1354167   0.2719520  -0.1059398), wk =   0.0008681
        k(  303) = (   0.1354167   0.2920965  -0.1059398), wk =   0.0008681
        k(  304) = (   0.1354167   0.3122411  -0.1059398), wk =   0.0008681
        k(  305) = (   0.1354167   0.3323857  -0.1059398), wk =   0.0008681
        k(  306) = (   0.1354167   0.3525303  -0.1059398), wk =   0.0008681
        k(  307) = (   0.1354167   0.3726749  -0.1059398), wk =   0.0008681
        k(  308) = (   0.1354167   0.3928195  -0.1059398), wk =   0.0008681
        k(  309) = (   0.1354167   0.4129641  -0.1059398), wk =   0.0008681
        k(  310) = (   0.1354167   0.4331087  -0.1059398), wk =   0.0008681
        k(  311) = (   0.1354167   0.4532533  -0.1059398), wk =   0.0008681
        k(  312) = (   0.1354167   0.4733978  -0.1059398), wk =   0.0008681
        k(  313) = (   0.1354167  -0.4733978  -0.1059398), wk =   0.0008681
        k(  314) = (   0.1354167  -0.4532533  -0.1059398), wk =   0.0008681
        k(  315) = (   0.1354167  -0.4331087  -0.1059398), wk =   0.0008681
        k(  316) = (   0.1354167  -0.4129641  -0.1059398), wk =   0.0008681
        k(  317) = (   0.1354167  -0.3928195  -0.1059398), wk =   0.0008681
        k(  318) = (   0.1354167  -0.3726749  -0.1059398), wk =   0.0008681
        k(  319) = (   0.1354167  -0.3525303  -0.1059398), wk =   0.0008681
        k(  320) = (   0.1354167  -0.3323857  -0.1059398), wk =   0.0008681
        k(  321) = (   0.1354167  -0.3122411  -0.1059398), wk =   0.0008681
        k(  322) = (   0.1354167  -0.2920965  -0.1059398), wk =   0.0008681
        k(  323) = (   0.1354167  -0.2719520  -0.1059398), wk =   0.0008681
        k(  324) = (   0.1354167  -0.2518074  -0.1059398), wk =   0.0008681
        k(  325) = (   0.1354167  -0.2316628  -0.1059398), wk =   0.0008681
        k(  326) = (   0.1354167  -0.2115182  -0.1059398), wk =   0.0008681
        k(  327) = (   0.1354167  -0.1913736  -0.1059398), wk =   0.0008681
        k(  328) = (   0.1354167  -0.1712290  -0.1059398), wk =   0.0008681
        k(  329) = (   0.1354167  -0.1510844  -0.1059398), wk =   0.0008681
        k(  330) = (   0.1354167  -0.1309398  -0.1059398), wk =   0.0008681
        k(  331) = (   0.1354167  -0.1107952  -0.1059398), wk =   0.0008681
        k(  332) = (   0.1354167  -0.0906507  -0.1059398), wk =   0.0008681
        k(  333) = (   0.1354167  -0.0705061  -0.1059398), wk =   0.0008681
        k(  334) = (   0.1354167  -0.0503615  -0.1059398), wk =   0.0008681
        k(  335) = (   0.1354167  -0.0302169  -0.1059398), wk =   0.0008681
        k(  336) = (   0.1354167  -0.0100723  -0.1059398), wk =   0.0008681
        k(  337) = (   0.1562500   0.0100723  -0.1059398), wk =   0.0008681
        k(  338) = (   0.1562500   0.0302169  -0.1059398), wk =   0.0008681
        k(  339) = (   0.1562500   0.0503615  -0.1059398), wk =   0.0008681
        k(  340) = (   0.1562500   0.0705061  -0.1059398), wk =   0.0008681
        k(  341) = (   0.1562500   0.0906507  -0.1059398), wk =   0.0008681
        k(  342) = (   0.1562500   0.1107952  -0.1059398), wk =   0.0008681
        k(  343) = (   0.1562500   0.1309398  -0.1059398), wk =   0.0008681
        k(  344) = (   0.1562500   0.1510844  -0.1059398), wk =   0.0008681
        k(  345) = (   0.1562500   0.1712290  -0.1059398), wk =   0.0008681
        k(  346) = (   0.1562500   0.1913736  -0.1059398), wk =   0.0008681
        k(  347) = (   0.1562500   0.2115182  -0.1059398), wk =   0.0008681
        k(  348) = (   0.1562500   0.2316628  -0.1059398), wk =   0.0008681
        k(  349) = (   0.1562500   0.2518074  -0.1059398), wk =   0.0008681
        k(  350) = (   0.1562500   0.2719520  -0.1059398), wk =   0.0008681
        k(  351) = (   0.1562500   0.2920965  -0.1059398), wk =   0.0008681
        k(  352) = (   0.1562500   0.3122411  -0.1059398), wk =   0.0008681
        k(  353) = (   0.1562500   0.3323857  -0.1059398), wk =   0.0008681
        k(  354) = (   0.1562500   0.3525303  -0.1059398), wk =   0.0008681
        k(  355) = (   0.1562500   0.3726749  -0.1059398), wk =   0.0008681
        k(  356) = (   0.1562500   0.3928195  -0.1059398), wk =   0.0008681
        k(  357) = (   0.1562500   0.4129641  -0.1059398), wk =   0.0008681
        k(  358) = (   0.1562500   0.4331087  -0.1059398), wk =   0.0008681
        k(  359) = (   0.1562500   0.4532533  -0.1059398), wk =   0.0008681
        k(  360) = (   0.1562500   0.4733978  -0.1059398), wk =   0.0008681
        k(  361) = (   0.1562500  -0.4733978  -0.1059398), wk =   0.0008681
        k(  362) = (   0.1562500  -0.4532533  -0.1059398), wk =   0.0008681
        k(  363) = (   0.1562500  -0.4331087  -0.1059398), wk =   0.0008681
        k(  364) = (   0.1562500  -0.4129641  -0.1059398), wk =   0.0008681
        k(  365) = (   0.1562500  -0.3928195  -0.1059398), wk =   0.0008681
        k(  366) = (   0.1562500  -0.3726749  -0.1059398), wk =   0.0008681
        k(  367) = (   0.1562500  -0.3525303  -0.1059398), wk =   0.0008681
        k(  368) = (   0.1562500  -0.3323857  -0.1059398), wk =   0.0008681
        k(  369) = (   0.1562500  -0.3122411  -0.1059398), wk =   0.0008681
        k(  370) = (   0.1562500  -0.2920965  -0.1059398), wk =   0.0008681
        k(  371) = (   0.1562500  -0.2719520  -0.1059398), wk =   0.0008681
        k(  372) = (   0.1562500  -0.2518074  -0.1059398), wk =   0.0008681
        k(  373) = (   0.1562500  -0.2316628  -0.1059398), wk =   0.0008681
        k(  374) = (   0.1562500  -0.2115182  -0.1059398), wk =   0.0008681
        k(  375) = (   0.1562500  -0.1913736  -0.1059398), wk =   0.0008681
        k(  376) = (   0.1562500  -0.1712290  -0.1059398), wk =   0.0008681
        k(  377) = (   0.1562500  -0.1510844  -0.1059398), wk =   0.0008681
        k(  378) = (   0.1562500  -0.1309398  -0.1059398), wk =   0.0008681
        k(  379) = (   0.1562500  -0.1107952  -0.1059398), wk =   0.0008681
        k(  380) = (   0.1562500  -0.0906507  -0.1059398), wk =   0.0008681
        k(  381) = (   0.1562500  -0.0705061  -0.1059398), wk =   0.0008681
        k(  382) = (   0.1562500  -0.0503615  -0.1059398), wk =   0.0008681
        k(  383) = (   0.1562500  -0.0302169  -0.1059398), wk =   0.0008681
        k(  384) = (   0.1562500  -0.0100723  -0.1059398), wk =   0.0008681
        k(  385) = (   0.1770833   0.0100723  -0.1059398), wk =   0.0008681
        k(  386) = (   0.1770833   0.0302169  -0.1059398), wk =   0.0008681
        k(  387) = (   0.1770833   0.0503615  -0.1059398), wk =   0.0008681
        k(  388) = (   0.1770833   0.0705061  -0.1059398), wk =   0.0008681
        k(  389) = (   0.1770833   0.0906507  -0.1059398), wk =   0.0008681
        k(  390) = (   0.1770833   0.1107952  -0.1059398), wk =   0.0008681
        k(  391) = (   0.1770833   0.1309398  -0.1059398), wk =   0.0008681
        k(  392) = (   0.1770833   0.1510844  -0.1059398), wk =   0.0008681
        k(  393) = (   0.1770833   0.1712290  -0.1059398), wk =   0.0008681
        k(  394) = (   0.1770833   0.1913736  -0.1059398), wk =   0.0008681
        k(  395) = (   0.1770833   0.2115182  -0.1059398), wk =   0.0008681
        k(  396) = (   0.1770833   0.2316628  -0.1059398), wk =   0.0008681
        k(  397) = (   0.1770833   0.2518074  -0.1059398), wk =   0.0008681
        k(  398) = (   0.1770833   0.2719520  -0.1059398), wk =   0.0008681
        k(  399) = (   0.1770833   0.2920965  -0.1059398), wk =   0.0008681
        k(  400) = (   0.1770833   0.3122411  -0.1059398), wk =   0.0008681
        k(  401) = (   0.1770833   0.3323857  -0.1059398), wk =   0.0008681
        k(  402) = (   0.1770833   0.3525303  -0.1059398), wk =   0.0008681
        k(  403) = (   0.1770833   0.3726749  -0.1059398), wk =   0.0008681
        k(  404) = (   0.1770833   0.3928195  -0.1059398), wk =   0.0008681
        k(  405) = (   0.1770833   0.4129641  -0.1059398), wk =   0.0008681
        k(  406) = (   0.1770833   0.4331087  -0.1059398), wk =   0.0008681
        k(  407) = (   0.1770833   0.4532533  -0.1059398), wk =   0.0008681
        k(  408) = (   0.1770833   0.4733978  -0.1059398), wk =   0.0008681
        k(  409) = (   0.1770833  -0.4733978  -0.1059398), wk =   0.0008681
        k(  410) = (   0.1770833  -0.4532533  -0.1059398), wk =   0.0008681
        k(  411) = (   0.1770833  -0.4331087  -0.1059398), wk =   0.0008681
        k(  412) = (   0.1770833  -0.4129641  -0.1059398), wk =   0.0008681
        k(  413) = (   0.1770833  -0.3928195  -0.1059398), wk =   0.0008681
        k(  414) = (   0.1770833  -0.3726749  -0.1059398), wk =   0.0008681
        k(  415) = (   0.1770833  -0.3525303  -0.1059398), wk =   0.0008681
        k(  416) = (   0.1770833  -0.3323857  -0.1059398), wk =   0.0008681
        k(  417) = (   0.1770833  -0.3122411  -0.1059398), wk =   0.0008681
        k(  418) = (   0.1770833  -0.2920965  -0.1059398), wk =   0.0008681
        k(  419) = (   0.1770833  -0.2719520  -0.1059398), wk =   0.0008681
        k(  420) = (   0.1770833  -0.2518074  -0.1059398), wk =   0.0008681
        k(  421) = (   0.1770833  -0.2316628  -0.1059398), wk =   0.0008681
        k(  422) = (   0.1770833  -0.2115182  -0.1059398), wk =   0.0008681
        k(  423) = (   0.1770833  -0.1913736  -0.1059398), wk =   0.0008681
        k(  424) = (   0.1770833  -0.1712290  -0.1059398), wk =   0.0008681
        k(  425) = (   0.1770833  -0.1510844  -0.1059398), wk =   0.0008681
        k(  426) = (   0.1770833  -0.1309398  -0.1059398), wk =   0.0008681
        k(  427) = (   0.1770833  -0.1107952  -0.1059398), wk =   0.0008681
        k(  428) = (   0.1770833  -0.0906507  -0.1059398), wk =   0.0008681
        k(  429) = (   0.1770833  -0.0705061  -0.1059398), wk =   0.0008681
        k(  430) = (   0.1770833  -0.0503615  -0.1059398), wk =   0.0008681
        k(  431) = (   0.1770833  -0.0302169  -0.1059398), wk =   0.0008681
        k(  432) = (   0.1770833  -0.0100723  -0.1059398), wk =   0.0008681
        k(  433) = (   0.1979167   0.0100723  -0.1059398), wk =   0.0008681
        k(  434) = (   0.1979167   0.0302169  -0.1059398), wk =   0.0008681
        k(  435) = (   0.1979167   0.0503615  -0.1059398), wk =   0.0008681
        k(  436) = (   0.1979167   0.0705061  -0.1059398), wk =   0.0008681
        k(  437) = (   0.1979167   0.0906507  -0.1059398), wk =   0.0008681
        k(  438) = (   0.1979167   0.1107952  -0.1059398), wk =   0.0008681
        k(  439) = (   0.1979167   0.1309398  -0.1059398), wk =   0.0008681
        k(  440) = (   0.1979167   0.1510844  -0.1059398), wk =   0.0008681
        k(  441) = (   0.1979167   0.1712290  -0.1059398), wk =   0.0008681
        k(  442) = (   0.1979167   0.1913736  -0.1059398), wk =   0.0008681
        k(  443) = (   0.1979167   0.2115182  -0.1059398), wk =   0.0008681
        k(  444) = (   0.1979167   0.2316628  -0.1059398), wk =   0.0008681
        k(  445) = (   0.1979167   0.2518074  -0.1059398), wk =   0.0008681
        k(  446) = (   0.1979167   0.2719520  -0.1059398), wk =   0.0008681
        k(  447) = (   0.1979167   0.2920965  -0.1059398), wk =   0.0008681
        k(  448) = (   0.1979167   0.3122411  -0.1059398), wk =   0.0008681
        k(  449) = (   0.1979167   0.3323857  -0.1059398), wk =   0.0008681
        k(  450) = (   0.1979167   0.3525303  -0.1059398), wk =   0.0008681
        k(  451) = (   0.1979167   0.3726749  -0.1059398), wk =   0.0008681
        k(  452) = (   0.1979167   0.3928195  -0.1059398), wk =   0.0008681
        k(  453) = (   0.1979167   0.4129641  -0.1059398), wk =   0.0008681
        k(  454) = (   0.1979167   0.4331087  -0.1059398), wk =   0.0008681
        k(  455) = (   0.1979167   0.4532533  -0.1059398), wk =   0.0008681
        k(  456) = (   0.1979167   0.4733978  -0.1059398), wk =   0.0008681
        k(  457) = (   0.1979167  -0.4733978  -0.1059398), wk =   0.0008681
        k(  458) = (   0.1979167  -0.4532533  -0.1059398), wk =   0.0008681
        k(  459) = (   0.1979167  -0.4331087  -0.1059398), wk =   0.0008681
        k(  460) = (   0.1979167  -0.4129641  -0.1059398), wk =   0.0008681
        k(  461) = (   0.1979167  -0.3928195  -0.1059398), wk =   0.0008681
        k(  462) = (   0.1979167  -0.3726749  -0.1059398), wk =   0.0008681
        k(  463) = (   0.1979167  -0.3525303  -0.1059398), wk =   0.0008681
        k(  464) = (   0.1979167  -0.3323857  -0.1059398), wk =   0.0008681
        k(  465) = (   0.1979167  -0.3122411  -0.1059398), wk =   0.0008681
        k(  466) = (   0.1979167  -0.2920965  -0.1059398), wk =   0.0008681
        k(  467) = (   0.1979167  -0.2719520  -0.1059398), wk =   0.0008681
        k(  468) = (   0.1979167  -0.2518074  -0.1059398), wk =   0.0008681
        k(  469) = (   0.1979167  -0.2316628  -0.1059398), wk =   0.0008681
        k(  470) = (   0.1979167  -0.2115182  -0.1059398), wk =   0.0008681
        k(  471) = (   0.1979167  -0.1913736  -0.1059398), wk =   0.0008681
        k(  472) = (   0.1979167  -0.1712290  -0.1059398), wk =   0.0008681
        k(  473) = (   0.1979167  -0.1510844  -0.1059398), wk =   0.0008681
        k(  474) = (   0.1979167  -0.1309398  -0.1059398), wk =   0.0008681
        k(  475) = (   0.1979167  -0.1107952  -0.1059398), wk =   0.0008681
        k(  476) = (   0.1979167  -0.0906507  -0.1059398), wk =   0.0008681
        k(  477) = (   0.1979167  -0.0705061  -0.1059398), wk =   0.0008681
        k(  478) = (   0.1979167  -0.0503615  -0.1059398), wk =   0.0008681
        k(  479) = (   0.1979167  -0.0302169  -0.1059398), wk =   0.0008681
        k(  480) = (   0.1979167  -0.0100723  -0.1059398), wk =   0.0008681
        k(  481) = (   0.2187500   0.0100723  -0.1059398), wk =   0.0008681
        k(  482) = (   0.2187500   0.0302169  -0.1059398), wk =   0.0008681
        k(  483) = (   0.2187500   0.0503615  -0.1059398), wk =   0.0008681
        k(  484) = (   0.2187500   0.0705061  -0.1059398), wk =   0.0008681
        k(  485) = (   0.2187500   0.0906507  -0.1059398), wk =   0.0008681
        k(  486) = (   0.2187500   0.1107952  -0.1059398), wk =   0.0008681
        k(  487) = (   0.2187500   0.1309398  -0.1059398), wk =   0.0008681
        k(  488) = (   0.2187500   0.1510844  -0.1059398), wk =   0.0008681
        k(  489) = (   0.2187500   0.1712290  -0.1059398), wk =   0.0008681
        k(  490) = (   0.2187500   0.1913736  -0.1059398), wk =   0.0008681
        k(  491) = (   0.2187500   0.2115182  -0.1059398), wk =   0.0008681
        k(  492) = (   0.2187500   0.2316628  -0.1059398), wk =   0.0008681
        k(  493) = (   0.2187500   0.2518074  -0.1059398), wk =   0.0008681
        k(  494) = (   0.2187500   0.2719520  -0.1059398), wk =   0.0008681
        k(  495) = (   0.2187500   0.2920965  -0.1059398), wk =   0.0008681
        k(  496) = (   0.2187500   0.3122411  -0.1059398), wk =   0.0008681
        k(  497) = (   0.2187500   0.3323857  -0.1059398), wk =   0.0008681
        k(  498) = (   0.2187500   0.3525303  -0.1059398), wk =   0.0008681
        k(  499) = (   0.2187500   0.3726749  -0.1059398), wk =   0.0008681
        k(  500) = (   0.2187500   0.3928195  -0.1059398), wk =   0.0008681
        k(  501) = (   0.2187500   0.4129641  -0.1059398), wk =   0.0008681
        k(  502) = (   0.2187500   0.4331087  -0.1059398), wk =   0.0008681
        k(  503) = (   0.2187500   0.4532533  -0.1059398), wk =   0.0008681
        k(  504) = (   0.2187500   0.4733978  -0.1059398), wk =   0.0008681
        k(  505) = (   0.2187500  -0.4733978  -0.1059398), wk =   0.0008681
        k(  506) = (   0.2187500  -0.4532533  -0.1059398), wk =   0.0008681
        k(  507) = (   0.2187500  -0.4331087  -0.1059398), wk =   0.0008681
        k(  508) = (   0.2187500  -0.4129641  -0.1059398), wk =   0.0008681
        k(  509) = (   0.2187500  -0.3928195  -0.1059398), wk =   0.0008681
        k(  510) = (   0.2187500  -0.3726749  -0.1059398), wk =   0.0008681
        k(  511) = (   0.2187500  -0.3525303  -0.1059398), wk =   0.0008681
        k(  512) = (   0.2187500  -0.3323857  -0.1059398), wk =   0.0008681
        k(  513) = (   0.2187500  -0.3122411  -0.1059398), wk =   0.0008681
        k(  514) = (   0.2187500  -0.2920965  -0.1059398), wk =   0.0008681
        k(  515) = (   0.2187500  -0.2719520  -0.1059398), wk =   0.0008681
        k(  516) = (   0.2187500  -0.2518074  -0.1059398), wk =   0.0008681
        k(  517) = (   0.2187500  -0.2316628  -0.1059398), wk =   0.0008681
        k(  518) = (   0.2187500  -0.2115182  -0.1059398), wk =   0.0008681
        k(  519) = (   0.2187500  -0.1913736  -0.1059398), wk =   0.0008681
        k(  520) = (   0.2187500  -0.1712290  -0.1059398), wk =   0.0008681
        k(  521) = (   0.2187500  -0.1510844  -0.1059398), wk =   0.0008681
        k(  522) = (   0.2187500  -0.1309398  -0.1059398), wk =   0.0008681
        k(  523) = (   0.2187500  -0.1107952  -0.1059398), wk =   0.0008681
        k(  524) = (   0.2187500  -0.0906507  -0.1059398), wk =   0.0008681
        k(  525) = (   0.2187500  -0.0705061  -0.1059398), wk =   0.0008681
        k(  526) = (   0.2187500  -0.0503615  -0.1059398), wk =   0.0008681
        k(  527) = (   0.2187500  -0.0302169  -0.1059398), wk =   0.0008681
        k(  528) = (   0.2187500  -0.0100723  -0.1059398), wk =   0.0008681
        k(  529) = (   0.2395833   0.0100723  -0.1059398), wk =   0.0008681
        k(  530) = (   0.2395833   0.0302169  -0.1059398), wk =   0.0008681
        k(  531) = (   0.2395833   0.0503615  -0.1059398), wk =   0.0008681
        k(  532) = (   0.2395833   0.0705061  -0.1059398), wk =   0.0008681
        k(  533) = (   0.2395833   0.0906507  -0.1059398), wk =   0.0008681
        k(  534) = (   0.2395833   0.1107952  -0.1059398), wk =   0.0008681
        k(  535) = (   0.2395833   0.1309398  -0.1059398), wk =   0.0008681
        k(  536) = (   0.2395833   0.1510844  -0.1059398), wk =   0.0008681
        k(  537) = (   0.2395833   0.1712290  -0.1059398), wk =   0.0008681
        k(  538) = (   0.2395833   0.1913736  -0.1059398), wk =   0.0008681
        k(  539) = (   0.2395833   0.2115182  -0.1059398), wk =   0.0008681
        k(  540) = (   0.2395833   0.2316628  -0.1059398), wk =   0.0008681
        k(  541) = (   0.2395833   0.2518074  -0.1059398), wk =   0.0008681
        k(  542) = (   0.2395833   0.2719520  -0.1059398), wk =   0.0008681
        k(  543) = (   0.2395833   0.2920965  -0.1059398), wk =   0.0008681
        k(  544) = (   0.2395833   0.3122411  -0.1059398), wk =   0.0008681
        k(  545) = (   0.2395833   0.3323857  -0.1059398), wk =   0.0008681
        k(  546) = (   0.2395833   0.3525303  -0.1059398), wk =   0.0008681
        k(  547) = (   0.2395833   0.3726749  -0.1059398), wk =   0.0008681
        k(  548) = (   0.2395833   0.3928195  -0.1059398), wk =   0.0008681
        k(  549) = (   0.2395833   0.4129641  -0.1059398), wk =   0.0008681
        k(  550) = (   0.2395833   0.4331087  -0.1059398), wk =   0.0008681
        k(  551) = (   0.2395833   0.4532533  -0.1059398), wk =   0.0008681
        k(  552) = (   0.2395833   0.4733978  -0.1059398), wk =   0.0008681
        k(  553) = (   0.2395833  -0.4733978  -0.1059398), wk =   0.0008681
        k(  554) = (   0.2395833  -0.4532533  -0.1059398), wk =   0.0008681
        k(  555) = (   0.2395833  -0.4331087  -0.1059398), wk =   0.0008681
        k(  556) = (   0.2395833  -0.4129641  -0.1059398), wk =   0.0008681
        k(  557) = (   0.2395833  -0.3928195  -0.1059398), wk =   0.0008681
        k(  558) = (   0.2395833  -0.3726749  -0.1059398), wk =   0.0008681
        k(  559) = (   0.2395833  -0.3525303  -0.1059398), wk =   0.0008681
        k(  560) = (   0.2395833  -0.3323857  -0.1059398), wk =   0.0008681
        k(  561) = (   0.2395833  -0.3122411  -0.1059398), wk =   0.0008681
        k(  562) = (   0.2395833  -0.2920965  -0.1059398), wk =   0.0008681
        k(  563) = (   0.2395833  -0.2719520  -0.1059398), wk =   0.0008681
        k(  564) = (   0.2395833  -0.2518074  -0.1059398), wk =   0.0008681
        k(  565) = (   0.2395833  -0.2316628  -0.1059398), wk =   0.0008681
        k(  566) = (   0.2395833  -0.2115182  -0.1059398), wk =   0.0008681
        k(  567) = (   0.2395833  -0.1913736  -0.1059398), wk =   0.0008681
        k(  568) = (   0.2395833  -0.1712290  -0.1059398), wk =   0.0008681
        k(  569) = (   0.2395833  -0.1510844  -0.1059398), wk =   0.0008681
        k(  570) = (   0.2395833  -0.1309398  -0.1059398), wk =   0.0008681
        k(  571) = (   0.2395833  -0.1107952  -0.1059398), wk =   0.0008681
        k(  572) = (   0.2395833  -0.0906507  -0.1059398), wk =   0.0008681
        k(  573) = (   0.2395833  -0.0705061  -0.1059398), wk =   0.0008681
        k(  574) = (   0.2395833  -0.0503615  -0.1059398), wk =   0.0008681
        k(  575) = (   0.2395833  -0.0302169  -0.1059398), wk =   0.0008681
        k(  576) = (   0.2395833  -0.0100723  -0.1059398), wk =   0.0008681
        k(  577) = (   0.2604167   0.0100723  -0.1059398), wk =   0.0008681
        k(  578) = (   0.2604167   0.0302169  -0.1059398), wk =   0.0008681
        k(  579) = (   0.2604167   0.0503615  -0.1059398), wk =   0.0008681
        k(  580) = (   0.2604167   0.0705061  -0.1059398), wk =   0.0008681
        k(  581) = (   0.2604167   0.0906507  -0.1059398), wk =   0.0008681
        k(  582) = (   0.2604167   0.1107952  -0.1059398), wk =   0.0008681
        k(  583) = (   0.2604167   0.1309398  -0.1059398), wk =   0.0008681
        k(  584) = (   0.2604167   0.1510844  -0.1059398), wk =   0.0008681
        k(  585) = (   0.2604167   0.1712290  -0.1059398), wk =   0.0008681
        k(  586) = (   0.2604167   0.1913736  -0.1059398), wk =   0.0008681
        k(  587) = (   0.2604167   0.2115182  -0.1059398), wk =   0.0008681
        k(  588) = (   0.2604167   0.2316628  -0.1059398), wk =   0.0008681
        k(  589) = (   0.2604167   0.2518074  -0.1059398), wk =   0.0008681
        k(  590) = (   0.2604167   0.2719520  -0.1059398), wk =   0.0008681
        k(  591) = (   0.2604167   0.2920965  -0.1059398), wk =   0.0008681
        k(  592) = (   0.2604167   0.3122411  -0.1059398), wk =   0.0008681
        k(  593) = (   0.2604167   0.3323857  -0.1059398), wk =   0.0008681
        k(  594) = (   0.2604167   0.3525303  -0.1059398), wk =   0.0008681
        k(  595) = (   0.2604167   0.3726749  -0.1059398), wk =   0.0008681
        k(  596) = (   0.2604167   0.3928195  -0.1059398), wk =   0.0008681
        k(  597) = (   0.2604167   0.4129641  -0.1059398), wk =   0.0008681
        k(  598) = (   0.2604167   0.4331087  -0.1059398), wk =   0.0008681
        k(  599) = (   0.2604167   0.4532533  -0.1059398), wk =   0.0008681
        k(  600) = (   0.2604167   0.4733978  -0.1059398), wk =   0.0008681
        k(  601) = (   0.2604167  -0.4733978  -0.1059398), wk =   0.0008681
        k(  602) = (   0.2604167  -0.4532533  -0.1059398), wk =   0.0008681
        k(  603) = (   0.2604167  -0.4331087  -0.1059398), wk =   0.0008681
        k(  604) = (   0.2604167  -0.4129641  -0.1059398), wk =   0.0008681
        k(  605) = (   0.2604167  -0.3928195  -0.1059398), wk =   0.0008681
        k(  606) = (   0.2604167  -0.3726749  -0.1059398), wk =   0.0008681
        k(  607) = (   0.2604167  -0.3525303  -0.1059398), wk =   0.0008681
        k(  608) = (   0.2604167  -0.3323857  -0.1059398), wk =   0.0008681
        k(  609) = (   0.2604167  -0.3122411  -0.1059398), wk =   0.0008681
        k(  610) = (   0.2604167  -0.2920965  -0.1059398), wk =   0.0008681
        k(  611) = (   0.2604167  -0.2719520  -0.1059398), wk =   0.0008681
        k(  612) = (   0.2604167  -0.2518074  -0.1059398), wk =   0.0008681
        k(  613) = (   0.2604167  -0.2316628  -0.1059398), wk =   0.0008681
        k(  614) = (   0.2604167  -0.2115182  -0.1059398), wk =   0.0008681
        k(  615) = (   0.2604167  -0.1913736  -0.1059398), wk =   0.0008681
        k(  616) = (   0.2604167  -0.1712290  -0.1059398), wk =   0.0008681
        k(  617) = (   0.2604167  -0.1510844  -0.1059398), wk =   0.0008681
        k(  618) = (   0.2604167  -0.1309398  -0.1059398), wk =   0.0008681
        k(  619) = (   0.2604167  -0.1107952  -0.1059398), wk =   0.0008681
        k(  620) = (   0.2604167  -0.0906507  -0.1059398), wk =   0.0008681
        k(  621) = (   0.2604167  -0.0705061  -0.1059398), wk =   0.0008681
        k(  622) = (   0.2604167  -0.0503615  -0.1059398), wk =   0.0008681
        k(  623) = (   0.2604167  -0.0302169  -0.1059398), wk =   0.0008681
        k(  624) = (   0.2604167  -0.0100723  -0.1059398), wk =   0.0008681
        k(  625) = (   0.2812500   0.0100723  -0.1059398), wk =   0.0008681
        k(  626) = (   0.2812500   0.0302169  -0.1059398), wk =   0.0008681
        k(  627) = (   0.2812500   0.0503615  -0.1059398), wk =   0.0008681
        k(  628) = (   0.2812500   0.0705061  -0.1059398), wk =   0.0008681
        k(  629) = (   0.2812500   0.0906507  -0.1059398), wk =   0.0008681
        k(  630) = (   0.2812500   0.1107952  -0.1059398), wk =   0.0008681
        k(  631) = (   0.2812500   0.1309398  -0.1059398), wk =   0.0008681
        k(  632) = (   0.2812500   0.1510844  -0.1059398), wk =   0.0008681
        k(  633) = (   0.2812500   0.1712290  -0.1059398), wk =   0.0008681
        k(  634) = (   0.2812500   0.1913736  -0.1059398), wk =   0.0008681
        k(  635) = (   0.2812500   0.2115182  -0.1059398), wk =   0.0008681
        k(  636) = (   0.2812500   0.2316628  -0.1059398), wk =   0.0008681
        k(  637) = (   0.2812500   0.2518074  -0.1059398), wk =   0.0008681
        k(  638) = (   0.2812500   0.2719520  -0.1059398), wk =   0.0008681
        k(  639) = (   0.2812500   0.2920965  -0.1059398), wk =   0.0008681
        k(  640) = (   0.2812500   0.3122411  -0.1059398), wk =   0.0008681
        k(  641) = (   0.2812500   0.3323857  -0.1059398), wk =   0.0008681
        k(  642) = (   0.2812500   0.3525303  -0.1059398), wk =   0.0008681
        k(  643) = (   0.2812500   0.3726749  -0.1059398), wk =   0.0008681
        k(  644) = (   0.2812500   0.3928195  -0.1059398), wk =   0.0008681
        k(  645) = (   0.2812500   0.4129641  -0.1059398), wk =   0.0008681
        k(  646) = (   0.2812500   0.4331087  -0.1059398), wk =   0.0008681
        k(  647) = (   0.2812500   0.4532533  -0.1059398), wk =   0.0008681
        k(  648) = (   0.2812500   0.4733978  -0.1059398), wk =   0.0008681
        k(  649) = (   0.2812500  -0.4733978  -0.1059398), wk =   0.0008681
        k(  650) = (   0.2812500  -0.4532533  -0.1059398), wk =   0.0008681
        k(  651) = (   0.2812500  -0.4331087  -0.1059398), wk =   0.0008681
        k(  652) = (   0.2812500  -0.4129641  -0.1059398), wk =   0.0008681
        k(  653) = (   0.2812500  -0.3928195  -0.1059398), wk =   0.0008681
        k(  654) = (   0.2812500  -0.3726749  -0.1059398), wk =   0.0008681
        k(  655) = (   0.2812500  -0.3525303  -0.1059398), wk =   0.0008681
        k(  656) = (   0.2812500  -0.3323857  -0.1059398), wk =   0.0008681
        k(  657) = (   0.2812500  -0.3122411  -0.1059398), wk =   0.0008681
        k(  658) = (   0.2812500  -0.2920965  -0.1059398), wk =   0.0008681
        k(  659) = (   0.2812500  -0.2719520  -0.1059398), wk =   0.0008681
        k(  660) = (   0.2812500  -0.2518074  -0.1059398), wk =   0.0008681
        k(  661) = (   0.2812500  -0.2316628  -0.1059398), wk =   0.0008681
        k(  662) = (   0.2812500  -0.2115182  -0.1059398), wk =   0.0008681
        k(  663) = (   0.2812500  -0.1913736  -0.1059398), wk =   0.0008681
        k(  664) = (   0.2812500  -0.1712290  -0.1059398), wk =   0.0008681
        k(  665) = (   0.2812500  -0.1510844  -0.1059398), wk =   0.0008681
        k(  666) = (   0.2812500  -0.1309398  -0.1059398), wk =   0.0008681
        k(  667) = (   0.2812500  -0.1107952  -0.1059398), wk =   0.0008681
        k(  668) = (   0.2812500  -0.0906507  -0.1059398), wk =   0.0008681
        k(  669) = (   0.2812500  -0.0705061  -0.1059398), wk =   0.0008681
        k(  670) = (   0.2812500  -0.0503615  -0.1059398), wk =   0.0008681
        k(  671) = (   0.2812500  -0.0302169  -0.1059398), wk =   0.0008681
        k(  672) = (   0.2812500  -0.0100723  -0.1059398), wk =   0.0008681
        k(  673) = (   0.3020833   0.0100723  -0.1059398), wk =   0.0008681
        k(  674) = (   0.3020833   0.0302169  -0.1059398), wk =   0.0008681
        k(  675) = (   0.3020833   0.0503615  -0.1059398), wk =   0.0008681
        k(  676) = (   0.3020833   0.0705061  -0.1059398), wk =   0.0008681
        k(  677) = (   0.3020833   0.0906507  -0.1059398), wk =   0.0008681
        k(  678) = (   0.3020833   0.1107952  -0.1059398), wk =   0.0008681
        k(  679) = (   0.3020833   0.1309398  -0.1059398), wk =   0.0008681
        k(  680) = (   0.3020833   0.1510844  -0.1059398), wk =   0.0008681
        k(  681) = (   0.3020833   0.1712290  -0.1059398), wk =   0.0008681
        k(  682) = (   0.3020833   0.1913736  -0.1059398), wk =   0.0008681
        k(  683) = (   0.3020833   0.2115182  -0.1059398), wk =   0.0008681
        k(  684) = (   0.3020833   0.2316628  -0.1059398), wk =   0.0008681
        k(  685) = (   0.3020833   0.2518074  -0.1059398), wk =   0.0008681
        k(  686) = (   0.3020833   0.2719520  -0.1059398), wk =   0.0008681
        k(  687) = (   0.3020833   0.2920965  -0.1059398), wk =   0.0008681
        k(  688) = (   0.3020833   0.3122411  -0.1059398), wk =   0.0008681
        k(  689) = (   0.3020833   0.3323857  -0.1059398), wk =   0.0008681
        k(  690) = (   0.3020833   0.3525303  -0.1059398), wk =   0.0008681
        k(  691) = (   0.3020833   0.3726749  -0.1059398), wk =   0.0008681
        k(  692) = (   0.3020833   0.3928195  -0.1059398), wk =   0.0008681
        k(  693) = (   0.3020833   0.4129641  -0.1059398), wk =   0.0008681
        k(  694) = (   0.3020833   0.4331087  -0.1059398), wk =   0.0008681
        k(  695) = (   0.3020833   0.4532533  -0.1059398), wk =   0.0008681
        k(  696) = (   0.3020833   0.4733978  -0.1059398), wk =   0.0008681
        k(  697) = (   0.3020833  -0.4733978  -0.1059398), wk =   0.0008681
        k(  698) = (   0.3020833  -0.4532533  -0.1059398), wk =   0.0008681
        k(  699) = (   0.3020833  -0.4331087  -0.1059398), wk =   0.0008681
        k(  700) = (   0.3020833  -0.4129641  -0.1059398), wk =   0.0008681
        k(  701) = (   0.3020833  -0.3928195  -0.1059398), wk =   0.0008681
        k(  702) = (   0.3020833  -0.3726749  -0.1059398), wk =   0.0008681
        k(  703) = (   0.3020833  -0.3525303  -0.1059398), wk =   0.0008681
        k(  704) = (   0.3020833  -0.3323857  -0.1059398), wk =   0.0008681
        k(  705) = (   0.3020833  -0.3122411  -0.1059398), wk =   0.0008681
        k(  706) = (   0.3020833  -0.2920965  -0.1059398), wk =   0.0008681
        k(  707) = (   0.3020833  -0.2719520  -0.1059398), wk =   0.0008681
        k(  708) = (   0.3020833  -0.2518074  -0.1059398), wk =   0.0008681
        k(  709) = (   0.3020833  -0.2316628  -0.1059398), wk =   0.0008681
        k(  710) = (   0.3020833  -0.2115182  -0.1059398), wk =   0.0008681
        k(  711) = (   0.3020833  -0.1913736  -0.1059398), wk =   0.0008681
        k(  712) = (   0.3020833  -0.1712290  -0.1059398), wk =   0.0008681
        k(  713) = (   0.3020833  -0.1510844  -0.1059398), wk =   0.0008681
        k(  714) = (   0.3020833  -0.1309398  -0.1059398), wk =   0.0008681
        k(  715) = (   0.3020833  -0.1107952  -0.1059398), wk =   0.0008681
        k(  716) = (   0.3020833  -0.0906507  -0.1059398), wk =   0.0008681
        k(  717) = (   0.3020833  -0.0705061  -0.1059398), wk =   0.0008681
        k(  718) = (   0.3020833  -0.0503615  -0.1059398), wk =   0.0008681
        k(  719) = (   0.3020833  -0.0302169  -0.1059398), wk =   0.0008681
        k(  720) = (   0.3020833  -0.0100723  -0.1059398), wk =   0.0008681
        k(  721) = (   0.3229167   0.0100723  -0.1059398), wk =   0.0008681
        k(  722) = (   0.3229167   0.0302169  -0.1059398), wk =   0.0008681
        k(  723) = (   0.3229167   0.0503615  -0.1059398), wk =   0.0008681
        k(  724) = (   0.3229167   0.0705061  -0.1059398), wk =   0.0008681
        k(  725) = (   0.3229167   0.0906507  -0.1059398), wk =   0.0008681
        k(  726) = (   0.3229167   0.1107952  -0.1059398), wk =   0.0008681
        k(  727) = (   0.3229167   0.1309398  -0.1059398), wk =   0.0008681
        k(  728) = (   0.3229167   0.1510844  -0.1059398), wk =   0.0008681
        k(  729) = (   0.3229167   0.1712290  -0.1059398), wk =   0.0008681
        k(  730) = (   0.3229167   0.1913736  -0.1059398), wk =   0.0008681
        k(  731) = (   0.3229167   0.2115182  -0.1059398), wk =   0.0008681
        k(  732) = (   0.3229167   0.2316628  -0.1059398), wk =   0.0008681
        k(  733) = (   0.3229167   0.2518074  -0.1059398), wk =   0.0008681
        k(  734) = (   0.3229167   0.2719520  -0.1059398), wk =   0.0008681
        k(  735) = (   0.3229167   0.2920965  -0.1059398), wk =   0.0008681
        k(  736) = (   0.3229167   0.3122411  -0.1059398), wk =   0.0008681
        k(  737) = (   0.3229167   0.3323857  -0.1059398), wk =   0.0008681
        k(  738) = (   0.3229167   0.3525303  -0.1059398), wk =   0.0008681
        k(  739) = (   0.3229167   0.3726749  -0.1059398), wk =   0.0008681
        k(  740) = (   0.3229167   0.3928195  -0.1059398), wk =   0.0008681
        k(  741) = (   0.3229167   0.4129641  -0.1059398), wk =   0.0008681
        k(  742) = (   0.3229167   0.4331087  -0.1059398), wk =   0.0008681
        k(  743) = (   0.3229167   0.4532533  -0.1059398), wk =   0.0008681
        k(  744) = (   0.3229167   0.4733978  -0.1059398), wk =   0.0008681
        k(  745) = (   0.3229167  -0.4733978  -0.1059398), wk =   0.0008681
        k(  746) = (   0.3229167  -0.4532533  -0.1059398), wk =   0.0008681
        k(  747) = (   0.3229167  -0.4331087  -0.1059398), wk =   0.0008681
        k(  748) = (   0.3229167  -0.4129641  -0.1059398), wk =   0.0008681
        k(  749) = (   0.3229167  -0.3928195  -0.1059398), wk =   0.0008681
        k(  750) = (   0.3229167  -0.3726749  -0.1059398), wk =   0.0008681
        k(  751) = (   0.3229167  -0.3525303  -0.1059398), wk =   0.0008681
        k(  752) = (   0.3229167  -0.3323857  -0.1059398), wk =   0.0008681
        k(  753) = (   0.3229167  -0.3122411  -0.1059398), wk =   0.0008681
        k(  754) = (   0.3229167  -0.2920965  -0.1059398), wk =   0.0008681
        k(  755) = (   0.3229167  -0.2719520  -0.1059398), wk =   0.0008681
        k(  756) = (   0.3229167  -0.2518074  -0.1059398), wk =   0.0008681
        k(  757) = (   0.3229167  -0.2316628  -0.1059398), wk =   0.0008681
        k(  758) = (   0.3229167  -0.2115182  -0.1059398), wk =   0.0008681
        k(  759) = (   0.3229167  -0.1913736  -0.1059398), wk =   0.0008681
        k(  760) = (   0.3229167  -0.1712290  -0.1059398), wk =   0.0008681
        k(  761) = (   0.3229167  -0.1510844  -0.1059398), wk =   0.0008681
        k(  762) = (   0.3229167  -0.1309398  -0.1059398), wk =   0.0008681
        k(  763) = (   0.3229167  -0.1107952  -0.1059398), wk =   0.0008681
        k(  764) = (   0.3229167  -0.0906507  -0.1059398), wk =   0.0008681
        k(  765) = (   0.3229167  -0.0705061  -0.1059398), wk =   0.0008681
        k(  766) = (   0.3229167  -0.0503615  -0.1059398), wk =   0.0008681
        k(  767) = (   0.3229167  -0.0302169  -0.1059398), wk =   0.0008681
        k(  768) = (   0.3229167  -0.0100723  -0.1059398), wk =   0.0008681
        k(  769) = (   0.3437500   0.0100723  -0.1059398), wk =   0.0008681
        k(  770) = (   0.3437500   0.0302169  -0.1059398), wk =   0.0008681
        k(  771) = (   0.3437500   0.0503615  -0.1059398), wk =   0.0008681
        k(  772) = (   0.3437500   0.0705061  -0.1059398), wk =   0.0008681
        k(  773) = (   0.3437500   0.0906507  -0.1059398), wk =   0.0008681
        k(  774) = (   0.3437500   0.1107952  -0.1059398), wk =   0.0008681
        k(  775) = (   0.3437500   0.1309398  -0.1059398), wk =   0.0008681
        k(  776) = (   0.3437500   0.1510844  -0.1059398), wk =   0.0008681
        k(  777) = (   0.3437500   0.1712290  -0.1059398), wk =   0.0008681
        k(  778) = (   0.3437500   0.1913736  -0.1059398), wk =   0.0008681
        k(  779) = (   0.3437500   0.2115182  -0.1059398), wk =   0.0008681
        k(  780) = (   0.3437500   0.2316628  -0.1059398), wk =   0.0008681
        k(  781) = (   0.3437500   0.2518074  -0.1059398), wk =   0.0008681
        k(  782) = (   0.3437500   0.2719520  -0.1059398), wk =   0.0008681
        k(  783) = (   0.3437500   0.2920965  -0.1059398), wk =   0.0008681
        k(  784) = (   0.3437500   0.3122411  -0.1059398), wk =   0.0008681
        k(  785) = (   0.3437500   0.3323857  -0.1059398), wk =   0.0008681
        k(  786) = (   0.3437500   0.3525303  -0.1059398), wk =   0.0008681
        k(  787) = (   0.3437500   0.3726749  -0.1059398), wk =   0.0008681
        k(  788) = (   0.3437500   0.3928195  -0.1059398), wk =   0.0008681
        k(  789) = (   0.3437500   0.4129641  -0.1059398), wk =   0.0008681
        k(  790) = (   0.3437500   0.4331087  -0.1059398), wk =   0.0008681
        k(  791) = (   0.3437500   0.4532533  -0.1059398), wk =   0.0008681
        k(  792) = (   0.3437500   0.4733978  -0.1059398), wk =   0.0008681
        k(  793) = (   0.3437500  -0.4733978  -0.1059398), wk =   0.0008681
        k(  794) = (   0.3437500  -0.4532533  -0.1059398), wk =   0.0008681
        k(  795) = (   0.3437500  -0.4331087  -0.1059398), wk =   0.0008681
        k(  796) = (   0.3437500  -0.4129641  -0.1059398), wk =   0.0008681
        k(  797) = (   0.3437500  -0.3928195  -0.1059398), wk =   0.0008681
        k(  798) = (   0.3437500  -0.3726749  -0.1059398), wk =   0.0008681
        k(  799) = (   0.3437500  -0.3525303  -0.1059398), wk =   0.0008681
        k(  800) = (   0.3437500  -0.3323857  -0.1059398), wk =   0.0008681
        k(  801) = (   0.3437500  -0.3122411  -0.1059398), wk =   0.0008681
        k(  802) = (   0.3437500  -0.2920965  -0.1059398), wk =   0.0008681
        k(  803) = (   0.3437500  -0.2719520  -0.1059398), wk =   0.0008681
        k(  804) = (   0.3437500  -0.2518074  -0.1059398), wk =   0.0008681
        k(  805) = (   0.3437500  -0.2316628  -0.1059398), wk =   0.0008681
        k(  806) = (   0.3437500  -0.2115182  -0.1059398), wk =   0.0008681
        k(  807) = (   0.3437500  -0.1913736  -0.1059398), wk =   0.0008681
        k(  808) = (   0.3437500  -0.1712290  -0.1059398), wk =   0.0008681
        k(  809) = (   0.3437500  -0.1510844  -0.1059398), wk =   0.0008681
        k(  810) = (   0.3437500  -0.1309398  -0.1059398), wk =   0.0008681
        k(  811) = (   0.3437500  -0.1107952  -0.1059398), wk =   0.0008681
        k(  812) = (   0.3437500  -0.0906507  -0.1059398), wk =   0.0008681
        k(  813) = (   0.3437500  -0.0705061  -0.1059398), wk =   0.0008681
        k(  814) = (   0.3437500  -0.0503615  -0.1059398), wk =   0.0008681
        k(  815) = (   0.3437500  -0.0302169  -0.1059398), wk =   0.0008681
        k(  816) = (   0.3437500  -0.0100723  -0.1059398), wk =   0.0008681
        k(  817) = (   0.3645833   0.0100723  -0.1059398), wk =   0.0008681
        k(  818) = (   0.3645833   0.0302169  -0.1059398), wk =   0.0008681
        k(  819) = (   0.3645833   0.0503615  -0.1059398), wk =   0.0008681
        k(  820) = (   0.3645833   0.0705061  -0.1059398), wk =   0.0008681
        k(  821) = (   0.3645833   0.0906507  -0.1059398), wk =   0.0008681
        k(  822) = (   0.3645833   0.1107952  -0.1059398), wk =   0.0008681
        k(  823) = (   0.3645833   0.1309398  -0.1059398), wk =   0.0008681
        k(  824) = (   0.3645833   0.1510844  -0.1059398), wk =   0.0008681
        k(  825) = (   0.3645833   0.1712290  -0.1059398), wk =   0.0008681
        k(  826) = (   0.3645833   0.1913736  -0.1059398), wk =   0.0008681
        k(  827) = (   0.3645833   0.2115182  -0.1059398), wk =   0.0008681
        k(  828) = (   0.3645833   0.2316628  -0.1059398), wk =   0.0008681
        k(  829) = (   0.3645833   0.2518074  -0.1059398), wk =   0.0008681
        k(  830) = (   0.3645833   0.2719520  -0.1059398), wk =   0.0008681
        k(  831) = (   0.3645833   0.2920965  -0.1059398), wk =   0.0008681
        k(  832) = (   0.3645833   0.3122411  -0.1059398), wk =   0.0008681
        k(  833) = (   0.3645833   0.3323857  -0.1059398), wk =   0.0008681
        k(  834) = (   0.3645833   0.3525303  -0.1059398), wk =   0.0008681
        k(  835) = (   0.3645833   0.3726749  -0.1059398), wk =   0.0008681
        k(  836) = (   0.3645833   0.3928195  -0.1059398), wk =   0.0008681
        k(  837) = (   0.3645833   0.4129641  -0.1059398), wk =   0.0008681
        k(  838) = (   0.3645833   0.4331087  -0.1059398), wk =   0.0008681
        k(  839) = (   0.3645833   0.4532533  -0.1059398), wk =   0.0008681
        k(  840) = (   0.3645833   0.4733978  -0.1059398), wk =   0.0008681
        k(  841) = (   0.3645833  -0.4733978  -0.1059398), wk =   0.0008681
        k(  842) = (   0.3645833  -0.4532533  -0.1059398), wk =   0.0008681
        k(  843) = (   0.3645833  -0.4331087  -0.1059398), wk =   0.0008681
        k(  844) = (   0.3645833  -0.4129641  -0.1059398), wk =   0.0008681
        k(  845) = (   0.3645833  -0.3928195  -0.1059398), wk =   0.0008681
        k(  846) = (   0.3645833  -0.3726749  -0.1059398), wk =   0.0008681
        k(  847) = (   0.3645833  -0.3525303  -0.1059398), wk =   0.0008681
        k(  848) = (   0.3645833  -0.3323857  -0.1059398), wk =   0.0008681
        k(  849) = (   0.3645833  -0.3122411  -0.1059398), wk =   0.0008681
        k(  850) = (   0.3645833  -0.2920965  -0.1059398), wk =   0.0008681
        k(  851) = (   0.3645833  -0.2719520  -0.1059398), wk =   0.0008681
        k(  852) = (   0.3645833  -0.2518074  -0.1059398), wk =   0.0008681
        k(  853) = (   0.3645833  -0.2316628  -0.1059398), wk =   0.0008681
        k(  854) = (   0.3645833  -0.2115182  -0.1059398), wk =   0.0008681
        k(  855) = (   0.3645833  -0.1913736  -0.1059398), wk =   0.0008681
        k(  856) = (   0.3645833  -0.1712290  -0.1059398), wk =   0.0008681
        k(  857) = (   0.3645833  -0.1510844  -0.1059398), wk =   0.0008681
        k(  858) = (   0.3645833  -0.1309398  -0.1059398), wk =   0.0008681
        k(  859) = (   0.3645833  -0.1107952  -0.1059398), wk =   0.0008681
        k(  860) = (   0.3645833  -0.0906507  -0.1059398), wk =   0.0008681
        k(  861) = (   0.3645833  -0.0705061  -0.1059398), wk =   0.0008681
        k(  862) = (   0.3645833  -0.0503615  -0.1059398), wk =   0.0008681
        k(  863) = (   0.3645833  -0.0302169  -0.1059398), wk =   0.0008681
        k(  864) = (   0.3645833  -0.0100723  -0.1059398), wk =   0.0008681
        k(  865) = (   0.3854167   0.0100723  -0.1059398), wk =   0.0008681
        k(  866) = (   0.3854167   0.0302169  -0.1059398), wk =   0.0008681
        k(  867) = (   0.3854167   0.0503615  -0.1059398), wk =   0.0008681
        k(  868) = (   0.3854167   0.0705061  -0.1059398), wk =   0.0008681
        k(  869) = (   0.3854167   0.0906507  -0.1059398), wk =   0.0008681
        k(  870) = (   0.3854167   0.1107952  -0.1059398), wk =   0.0008681
        k(  871) = (   0.3854167   0.1309398  -0.1059398), wk =   0.0008681
        k(  872) = (   0.3854167   0.1510844  -0.1059398), wk =   0.0008681
        k(  873) = (   0.3854167   0.1712290  -0.1059398), wk =   0.0008681
        k(  874) = (   0.3854167   0.1913736  -0.1059398), wk =   0.0008681
        k(  875) = (   0.3854167   0.2115182  -0.1059398), wk =   0.0008681
        k(  876) = (   0.3854167   0.2316628  -0.1059398), wk =   0.0008681
        k(  877) = (   0.3854167   0.2518074  -0.1059398), wk =   0.0008681
        k(  878) = (   0.3854167   0.2719520  -0.1059398), wk =   0.0008681
        k(  879) = (   0.3854167   0.2920965  -0.1059398), wk =   0.0008681
        k(  880) = (   0.3854167   0.3122411  -0.1059398), wk =   0.0008681
        k(  881) = (   0.3854167   0.3323857  -0.1059398), wk =   0.0008681
        k(  882) = (   0.3854167   0.3525303  -0.1059398), wk =   0.0008681
        k(  883) = (   0.3854167   0.3726749  -0.1059398), wk =   0.0008681
        k(  884) = (   0.3854167   0.3928195  -0.1059398), wk =   0.0008681
        k(  885) = (   0.3854167   0.4129641  -0.1059398), wk =   0.0008681
        k(  886) = (   0.3854167   0.4331087  -0.1059398), wk =   0.0008681
        k(  887) = (   0.3854167   0.4532533  -0.1059398), wk =   0.0008681
        k(  888) = (   0.3854167   0.4733978  -0.1059398), wk =   0.0008681
        k(  889) = (   0.3854167  -0.4733978  -0.1059398), wk =   0.0008681
        k(  890) = (   0.3854167  -0.4532533  -0.1059398), wk =   0.0008681
        k(  891) = (   0.3854167  -0.4331087  -0.1059398), wk =   0.0008681
        k(  892) = (   0.3854167  -0.4129641  -0.1059398), wk =   0.0008681
        k(  893) = (   0.3854167  -0.3928195  -0.1059398), wk =   0.0008681
        k(  894) = (   0.3854167  -0.3726749  -0.1059398), wk =   0.0008681
        k(  895) = (   0.3854167  -0.3525303  -0.1059398), wk =   0.0008681
        k(  896) = (   0.3854167  -0.3323857  -0.1059398), wk =   0.0008681
        k(  897) = (   0.3854167  -0.3122411  -0.1059398), wk =   0.0008681
        k(  898) = (   0.3854167  -0.2920965  -0.1059398), wk =   0.0008681
        k(  899) = (   0.3854167  -0.2719520  -0.1059398), wk =   0.0008681
        k(  900) = (   0.3854167  -0.2518074  -0.1059398), wk =   0.0008681
        k(  901) = (   0.3854167  -0.2316628  -0.1059398), wk =   0.0008681
        k(  902) = (   0.3854167  -0.2115182  -0.1059398), wk =   0.0008681
        k(  903) = (   0.3854167  -0.1913736  -0.1059398), wk =   0.0008681
        k(  904) = (   0.3854167  -0.1712290  -0.1059398), wk =   0.0008681
        k(  905) = (   0.3854167  -0.1510844  -0.1059398), wk =   0.0008681
        k(  906) = (   0.3854167  -0.1309398  -0.1059398), wk =   0.0008681
        k(  907) = (   0.3854167  -0.1107952  -0.1059398), wk =   0.0008681
        k(  908) = (   0.3854167  -0.0906507  -0.1059398), wk =   0.0008681
        k(  909) = (   0.3854167  -0.0705061  -0.1059398), wk =   0.0008681
        k(  910) = (   0.3854167  -0.0503615  -0.1059398), wk =   0.0008681
        k(  911) = (   0.3854167  -0.0302169  -0.1059398), wk =   0.0008681
        k(  912) = (   0.3854167  -0.0100723  -0.1059398), wk =   0.0008681
        k(  913) = (   0.4062500   0.0100723  -0.1059398), wk =   0.0008681
        k(  914) = (   0.4062500   0.0302169  -0.1059398), wk =   0.0008681
        k(  915) = (   0.4062500   0.0503615  -0.1059398), wk =   0.0008681
        k(  916) = (   0.4062500   0.0705061  -0.1059398), wk =   0.0008681
        k(  917) = (   0.4062500   0.0906507  -0.1059398), wk =   0.0008681
        k(  918) = (   0.4062500   0.1107952  -0.1059398), wk =   0.0008681
        k(  919) = (   0.4062500   0.1309398  -0.1059398), wk =   0.0008681
        k(  920) = (   0.4062500   0.1510844  -0.1059398), wk =   0.0008681
        k(  921) = (   0.4062500   0.1712290  -0.1059398), wk =   0.0008681
        k(  922) = (   0.4062500   0.1913736  -0.1059398), wk =   0.0008681
        k(  923) = (   0.4062500   0.2115182  -0.1059398), wk =   0.0008681
        k(  924) = (   0.4062500   0.2316628  -0.1059398), wk =   0.0008681
        k(  925) = (   0.4062500   0.2518074  -0.1059398), wk =   0.0008681
        k(  926) = (   0.4062500   0.2719520  -0.1059398), wk =   0.0008681
        k(  927) = (   0.4062500   0.2920965  -0.1059398), wk =   0.0008681
        k(  928) = (   0.4062500   0.3122411  -0.1059398), wk =   0.0008681
        k(  929) = (   0.4062500   0.3323857  -0.1059398), wk =   0.0008681
        k(  930) = (   0.4062500   0.3525303  -0.1059398), wk =   0.0008681
        k(  931) = (   0.4062500   0.3726749  -0.1059398), wk =   0.0008681
        k(  932) = (   0.4062500   0.3928195  -0.1059398), wk =   0.0008681
        k(  933) = (   0.4062500   0.4129641  -0.1059398), wk =   0.0008681
        k(  934) = (   0.4062500   0.4331087  -0.1059398), wk =   0.0008681
        k(  935) = (   0.4062500   0.4532533  -0.1059398), wk =   0.0008681
        k(  936) = (   0.4062500   0.4733978  -0.1059398), wk =   0.0008681
        k(  937) = (   0.4062500  -0.4733978  -0.1059398), wk =   0.0008681
        k(  938) = (   0.4062500  -0.4532533  -0.1059398), wk =   0.0008681
        k(  939) = (   0.4062500  -0.4331087  -0.1059398), wk =   0.0008681
        k(  940) = (   0.4062500  -0.4129641  -0.1059398), wk =   0.0008681
        k(  941) = (   0.4062500  -0.3928195  -0.1059398), wk =   0.0008681
        k(  942) = (   0.4062500  -0.3726749  -0.1059398), wk =   0.0008681
        k(  943) = (   0.4062500  -0.3525303  -0.1059398), wk =   0.0008681
        k(  944) = (   0.4062500  -0.3323857  -0.1059398), wk =   0.0008681
        k(  945) = (   0.4062500  -0.3122411  -0.1059398), wk =   0.0008681
        k(  946) = (   0.4062500  -0.2920965  -0.1059398), wk =   0.0008681
        k(  947) = (   0.4062500  -0.2719520  -0.1059398), wk =   0.0008681
        k(  948) = (   0.4062500  -0.2518074  -0.1059398), wk =   0.0008681
        k(  949) = (   0.4062500  -0.2316628  -0.1059398), wk =   0.0008681
        k(  950) = (   0.4062500  -0.2115182  -0.1059398), wk =   0.0008681
        k(  951) = (   0.4062500  -0.1913736  -0.1059398), wk =   0.0008681
        k(  952) = (   0.4062500  -0.1712290  -0.1059398), wk =   0.0008681
        k(  953) = (   0.4062500  -0.1510844  -0.1059398), wk =   0.0008681
        k(  954) = (   0.4062500  -0.1309398  -0.1059398), wk =   0.0008681
        k(  955) = (   0.4062500  -0.1107952  -0.1059398), wk =   0.0008681
        k(  956) = (   0.4062500  -0.0906507  -0.1059398), wk =   0.0008681
        k(  957) = (   0.4062500  -0.0705061  -0.1059398), wk =   0.0008681
        k(  958) = (   0.4062500  -0.0503615  -0.1059398), wk =   0.0008681
        k(  959) = (   0.4062500  -0.0302169  -0.1059398), wk =   0.0008681
        k(  960) = (   0.4062500  -0.0100723  -0.1059398), wk =   0.0008681
        k(  961) = (   0.4270833   0.0100723  -0.1059398), wk =   0.0008681
        k(  962) = (   0.4270833   0.0302169  -0.1059398), wk =   0.0008681
        k(  963) = (   0.4270833   0.0503615  -0.1059398), wk =   0.0008681
        k(  964) = (   0.4270833   0.0705061  -0.1059398), wk =   0.0008681
        k(  965) = (   0.4270833   0.0906507  -0.1059398), wk =   0.0008681
        k(  966) = (   0.4270833   0.1107952  -0.1059398), wk =   0.0008681
        k(  967) = (   0.4270833   0.1309398  -0.1059398), wk =   0.0008681
        k(  968) = (   0.4270833   0.1510844  -0.1059398), wk =   0.0008681
        k(  969) = (   0.4270833   0.1712290  -0.1059398), wk =   0.0008681
        k(  970) = (   0.4270833   0.1913736  -0.1059398), wk =   0.0008681
        k(  971) = (   0.4270833   0.2115182  -0.1059398), wk =   0.0008681
        k(  972) = (   0.4270833   0.2316628  -0.1059398), wk =   0.0008681
        k(  973) = (   0.4270833   0.2518074  -0.1059398), wk =   0.0008681
        k(  974) = (   0.4270833   0.2719520  -0.1059398), wk =   0.0008681
        k(  975) = (   0.4270833   0.2920965  -0.1059398), wk =   0.0008681
        k(  976) = (   0.4270833   0.3122411  -0.1059398), wk =   0.0008681
        k(  977) = (   0.4270833   0.3323857  -0.1059398), wk =   0.0008681
        k(  978) = (   0.4270833   0.3525303  -0.1059398), wk =   0.0008681
        k(  979) = (   0.4270833   0.3726749  -0.1059398), wk =   0.0008681
        k(  980) = (   0.4270833   0.3928195  -0.1059398), wk =   0.0008681
        k(  981) = (   0.4270833   0.4129641  -0.1059398), wk =   0.0008681
[...]
     0.0000   0.0000   0.0000   0.0000   0.0000   0.0000   0.0000   0.0000
     0.0000   0.0000   0.0000   0.0000   0.0000   0.0000   0.0000   0.0000
     0.0000   0.0000   0.0000   0.0000   0.0000   0.0000   0.0000   0.0000
     0.0000   0.0000   0.0000   0.0000

          k =-0.0104-0.2720-0.1059 ( 14930 PWs)   bands (ev):

   -36.6549 -36.6545 -36.6531 -36.6530 -36.6384 -36.6381 -36.6296 -36.6293
   -36.6252 -36.6247 -24.6676 -24.6634 -24.6588 -24.6585 -24.6491 -24.6464
   -24.6374 -24.6372 -24.6354 -24.6333 -12.0955 -10.9786  -7.9367  -6.8406
    -3.3796  -2.4087  -2.0920  -1.3258  -1.2505  -0.2686   1.5404   1.6359
     1.9490   2.8588   3.0721   3.6155   4.5115   4.8476   5.6022   5.8337
     6.3357   6.6676   6.9820   7.6808   8.0348   8.0506   8.4468   8.7494
     9.0876   9.7547  10.0752  10.1941  10.4300  11.1687  11.4072  11.5585
    11.6321  11.8434  12.1660  12.1920

     occupation numbers 
     1.0000   1.0000   1.0000   1.0000   1.0000   1.0000   1.0000   1.0000
     1.0000   1.0000   1.0000   1.0000   1.0000   1.0000   1.0000   1.0000
     1.0000   1.0000   1.0000   1.0000   1.0000   1.0000   1.0000   1.0000
     1.0000   1.0000   1.0000   1.0000   1.0000   1.0000   0.0000   0.0000
     0.0000   0.0000   0.0000   0.0000   0.0000   0.0000   0.0000   0.0000
     0.0000   0.0000   0.0000   0.0000   0.0000   0.0000   0.0000   0.0000
     0.0000   0.0000   0.0000   0.0000   0.0000   0.0000   0.0000   0.0000
     0.0000   0.0000   0.0000   0.0000

          k =-0.0104-0.2518-0.1059 ( 14946 PWs)   bands (ev):

   -36.6550 -36.6545 -36.6531 -36.6530 -36.6385 -36.6382 -36.6296 -36.6293
   -36.6253 -36.6247 -24.6677 -24.6633 -24.6588 -24.6584 -24.6492 -24.6464
   -24.6373 -24.6372 -24.6355 -24.6333 -12.1557 -10.9824  -7.8595  -6.7141
    -3.4214  -2.4859  -2.1730  -1.2903  -1.2889  -0.3935   1.5165   1.8046
     2.1094   2.9914   3.1970   3.7138   4.4603   4.7611   5.4174   5.7463
     6.2597   6.6851   6.7629   7.6187   8.1238   8.1742   8.4789   8.7981
     9.1841   9.9701  10.0778  10.2470  10.4886  11.1410  11.2896  11.4761
    11.5031  11.6455  12.2212  12.2627

     occupation numbers 
     1.0000   1.0000   1.0000   1.0000   1.0000   1.0000   1.0000   1.0000
     1.0000   1.0000   1.0000   1.0000   1.0000   1.0000   1.0000   1.0000
     1.0000   1.0000   1.0000   1.0000   1.0000   1.0000   1.0000   1.0000
     1.0000   1.0000   1.0000   1.0000   1.0000   1.0000   0.0000   0.0000
     0.0000   0.0000   0.0000   0.0000   0.0000   0.0000   0.0000   0.0000
     0.0000   0.0000   0.0000   0.0000   0.0000   0.0000   0.0000   0.0000
     0.0000   0.0000   0.0000   0.0000   0.0000   0.0000   0.0000   0.0000
     0.0000   0.0000   0.0000   0.0000

          k =-0.0104-0.2317-0.1059 ( 14936 PWs)   bands (ev):

   -36.6550 -36.6545 -36.6531 -36.6530 -36.6385 -36.6382 -36.6296 -36.6293
   -36.6253 -36.6247 -24.6679 -24.6631 -24.6588 -24.6583 -24.6494 -24.6464
   -24.6373 -24.6371 -24.6356 -24.6332 -12.2122 -10.9900  -7.7750  -6.5896
    -3.4549  -2.5586  -2.2631  -1.3320  -1.2450  -0.5214   1.5010   1.9783
     2.2773   3.0798   3.3401   3.7916   4.4311   4.6810   5.2647   5.6700
     6.1907   6.5516   6.7061   7.5637   8.1245   8.2925   8.6061   8.8260
     9.3269   9.9943  10.1910  10.2276  10.6101  10.9108  11.2712  11.3148
    11.5377  11.5433  12.1719  12.2208

     occupation numbers 
     1.0000   1.0000   1.0000   1.0000   1.0000   1.0000   1.0000   1.0000
     1.0000   1.0000   1.0000   1.0000   1.0000   1.0000   1.0000   1.0000
     1.0000   1.0000   1.0000   1.0000   1.0000   1.0000   1.0000   1.0000
     1.0000   1.0000   1.0000   1.0000   1.0000   1.0000   0.0000   0.0000
     0.0000   0.0000   0.0000   0.0000   0.0000   0.0000   0.0000   0.0000
     0.0000   0.0000   0.0000   0.0000   0.0000   0.0000   0.0000   0.0000
     0.0000   0.0000   0.0000   0.0000   0.0000   0.0000   0.0000   0.0000
     0.0000   0.0000   0.0000   0.0000

          k =-0.0104-0.2115-0.1059 ( 14910 PWs)   bands (ev):

   -36.6550 -36.6545 -36.6531 -36.6530 -36.6386 -36.6383 -36.6296 -36.6293
   -36.6253 -36.6246 -24.6680 -24.6630 -24.6587 -24.6582 -24.6496 -24.6464
   -24.6372 -24.6371 -24.6356 -24.6331 -12.2646 -11.0006  -7.6854  -6.4688
    -3.4798  -2.6264  -2.3569  -1.3739  -1.1999  -0.6507   1.4934   2.1543
     2.4497   3.1202   3.4998   3.8421   4.4291   4.6073   5.1501   5.6024
     6.1287   6.3552   6.7338   7.5173   8.0893   8.3741   8.7875   8.8660
     9.4879   9.8546  10.1258  10.4142  10.6637  10.8121  11.0257  11.3329
    11.4791  11.6964  11.8879  12.1881

     occupation numbers 
     1.0000   1.0000   1.0000   1.0000   1.0000   1.0000   1.0000   1.0000
     1.0000   1.0000   1.0000   1.0000   1.0000   1.0000   1.0000   1.0000
     1.0000   1.0000   1.0000   1.0000   1.0000   1.0000   1.0000   1.0000
     1.0000   1.0000   1.0000   1.0000   1.0000   1.0000   0.0000   0.0000
     0.0000   0.0000   0.0000   0.0000   0.0000   0.0000   0.0000   0.0000
     0.0000   0.0000   0.0000   0.0000   0.0000   0.0000   0.0000   0.0000
     0.0000   0.0000   0.0000   0.0000   0.0000   0.0000   0.0000   0.0000
     0.0000   0.0000   0.0000   0.0000

          k =-0.0104-0.1914-0.1059 ( 14902 PWs)   bands (ev):

   -36.6550 -36.6545 -36.6531 -36.6530 -36.6387 -36.6383 -36.6296 -36.6293
   -36.6253 -36.6246 -24.6682 -24.6628 -24.6587 -24.6582 -24.6497 -24.6464
   -24.6372 -24.6370 -24.6357 -24.6331 -12.3128 -11.0132  -7.5927  -6.3532
    -3.4957  -2.6891  -2.4505  -1.4148  -1.1568  -0.7797   1.4928   2.3298
     2.6240   3.1205   3.6657   3.8635   4.4544   4.5402   5.0739   5.5432
     6.0727   6.1792   6.7702   7.4802   8.0457   8.4151   8.9266   8.9925
     9.5957   9.7170   9.9883  10.5177  10.6263  10.7925  10.9694  11.4139
    11.4183  11.5972  11.8884  12.1463

     occupation numbers 
     1.0000   1.0000   1.0000   1.0000   1.0000   1.0000   1.0000   1.0000
     1.0000   1.0000   1.0000   1.0000   1.0000   1.0000   1.0000   1.0000
     1.0000   1.0000   1.0000   1.0000   1.0000   1.0000   1.0000   1.0000
     1.0000   1.0000   1.0000   1.0000   1.0000   1.0000   0.0000   0.0000
     0.0000   0.0000   0.0000   0.0000   0.0000   0.0000   0.0000   0.0000
     0.0000   0.0000   0.0000   0.0000   0.0000   0.0000   0.0000   0.0000
     0.0000   0.0000   0.0000   0.0000   0.0000   0.0000   0.0000   0.0000
     0.0000   0.0000   0.0000   0.0000

          k =-0.0104-0.1712-0.1059 ( 14902 PWs)   bands (ev):

   -36.6550 -36.6545 -36.6531 -36.6530 -36.6387 -36.6384 -36.6296 -36.6293
   -36.6253 -36.6246 -24.6683 -24.6627 -24.6587 -24.6581 -24.6498 -24.6464
   -24.6372 -24.6370 -24.6358 -24.6330 -12.3567 -11.0269  -7.4993  -6.2444
    -3.5023  -2.7467  -2.5415  -1.4538  -1.1175  -0.9072   1.4981   2.5018
     2.7977   3.0896   3.8307   3.8618   4.4799   4.4996   5.0313   5.4925
     6.0020   6.0472   6.8164   7.4530   8.0031   8.4259   8.9936   9.2081
     9.4182   9.6974   9.9764  10.4019  10.5344  10.8665  11.1421  11.2838
    11.3911  11.5521  12.0604  12.1400

     occupation numbers 
     1.0000   1.0000   1.0000   1.0000   1.0000   1.0000   1.0000   1.0000
     1.0000   1.0000   1.0000   1.0000   1.0000   1.0000   1.0000   1.0000
     1.0000   1.0000   1.0000   1.0000   1.0000   1.0000   1.0000   1.0000
     1.0000   1.0000   1.0000   1.0000   1.0000   1.0000   0.0000   0.0000
     0.0000   0.0000   0.0000   0.0000   0.0000   0.0000   0.0000   0.0000
     0.0000   0.0000   0.0000   0.0000   0.0000   0.0000   0.0000   0.0000
     0.0000   0.0000   0.0000   0.0000   0.0000   0.0000   0.0000   0.0000
     0.0000   0.0000   0.0000   0.0000

          k =-0.0104-0.1511-0.1059 ( 14902 PWs)   bands (ev):

   -36.6550 -36.6545 -36.6531 -36.6529 -36.6388 -36.6384 -36.6296 -36.6292
   -36.6253 -36.6246 -24.6684 -24.6626 -24.6587 -24.6580 -24.6500 -24.6464
   -24.6371 -24.6370 -24.6359 -24.6330 -12.3961 -11.0409  -7.4076  -6.1440
    -3.5000  -2.7994  -2.6275  -1.4900  -1.0828  -1.0315   1.5080   2.6668
     2.9680   3.0368   3.8463   3.9901   4.4265   4.5538   5.0140   5.4506
     5.8804   5.9976   6.8722   7.4363   7.9650   8.4192   9.0300   9.2053
     9.4241   9.5441  10.1522  10.3216  10.3268  10.9869  11.0690  11.3156
    11.3553  11.7244  12.0582  12.0590

     occupation numbers 
     1.0000   1.0000   1.0000   1.0000   1.0000   1.0000   1.0000   1.0000
     1.0000   1.0000   1.0000   1.0000   1.0000   1.0000   1.0000   1.0000
     1.0000   1.0000   1.0000   1.0000   1.0000   1.0000   1.0000   1.0000
     1.0000   1.0000   1.0000   1.0000   1.0000   1.0000   0.0000   0.0000
     0.0000   0.0000   0.0000   0.0000   0.0000   0.0000   0.0000   0.0000
     0.0000   0.0000   0.0000   0.0000   0.0000   0.0000   0.0000   0.0000
     0.0000   0.0000   0.0000   0.0000   0.0000   0.0000   0.0000   0.0000
     0.0000   0.0000   0.0000   0.0000

          k =-0.0104-0.1309-0.1059 ( 14906 PWs)   bands (ev):

   -36.6550 -36.6545 -36.6531 -36.6529 -36.6389 -36.6385 -36.6296 -36.6292
   -36.6253 -36.6246 -24.6685 -24.6625 -24.6586 -24.6580 -24.6501 -24.6464
   -24.6371 -24.6369 -24.6359 -24.6329 -12.4308 -11.0544  -7.3198  -6.0535
    -3.4893  -2.8476  -2.7064  -1.5229  -1.1508  -1.0532   1.5211   2.8208
     2.9720   3.1323   3.8244   4.1402   4.3800   4.6084   5.0126   5.4179
     5.7738   5.9654   6.9359   7.4301   7.9331   8.4025   8.9149   9.0828
     9.4286   9.6173  10.1594  10.2352  10.3947  10.7404  11.1195  11.4088
    11.4862  11.8824  11.9559  12.0728

     occupation numbers 
     1.0000   1.0000   1.0000   1.0000   1.0000   1.0000   1.0000   1.0000
     1.0000   1.0000   1.0000   1.0000   1.0000   1.0000   1.0000   1.0000
     1.0000   1.0000   1.0000   1.0000   1.0000   1.0000   1.0000   1.0000
     1.0000   1.0000   1.0000   1.0000   1.0000   1.0000   0.0000   0.0000
     0.0000   0.0000   0.0000   0.0000   0.0000   0.0000   0.0000   0.0000
     0.0000   0.0000   0.0000   0.0000   0.0000   0.0000   0.0000   0.0000
     0.0000   0.0000   0.0000   0.0000   0.0000   0.0000   0.0000   0.0000
     0.0000   0.0000   0.0000   0.0000

          k =-0.0104-0.1108-0.1059 ( 14910 PWs)   bands (ev):

   -36.6550 -36.6545 -36.6531 -36.6529 -36.6389 -36.6385 -36.6296 -36.6292
   -36.6254 -36.6246 -24.6686 -24.6625 -24.6586 -24.6579 -24.6502 -24.6464
   -24.6370 -24.6369 -24.6360 -24.6329 -12.4607 -11.0670  -7.2384  -5.9742
    -3.4715  -2.8919  -2.7755  -1.5519  -1.2628  -1.0284   1.5357   2.9036
     2.9598   3.2874   3.8009   4.2773   4.3403   4.6580   5.0189   5.3947
     5.6914   5.9412   7.0045   7.4341   7.9088   8.3770   8.7138   8.9615
     9.4189   9.7027  10.1172  10.1903  10.4960  10.6248  11.0845  11.4908
    11.6395  11.9273  11.9279  12.1734

     occupation numbers 
     1.0000   1.0000   1.0000   1.0000   1.0000   1.0000   1.0000   1.0000
     1.0000   1.0000   1.0000   1.0000   1.0000   1.0000   1.0000   1.0000
     1.0000   1.0000   1.0000   1.0000   1.0000   1.0000   1.0000   1.0000
     1.0000   1.0000   1.0000   1.0000   1.0000   1.0000   0.0000   0.0000
     0.0000   0.0000   0.0000   0.0000   0.0000   0.0000   0.0000   0.0000
     0.0000   0.0000   0.0000   0.0000   0.0000   0.0000   0.0000   0.0000
     0.0000   0.0000   0.0000   0.0000   0.0000   0.0000   0.0000   0.0000
     0.0000   0.0000   0.0000   0.0000

          k =-0.0104-0.0907-0.1059 ( 14900 PWs)   bands (ev):

   -36.6551 -36.6545 -36.6531 -36.6529 -36.6389 -36.6386 -36.6296 -36.6292
   -36.6254 -36.6246 -24.6687 -24.6624 -24.6586 -24.6579 -24.6503 -24.6464
   -24.6370 -24.6369 -24.6360 -24.6329 -12.4857 -11.0782  -7.1658  -5.9069
    -3.4486  -2.9333  -2.8323  -1.5769  -1.3645  -1.0085   1.5504   2.8384
     3.0798   3.4295   3.7787   4.3069   4.3985   4.6998   5.0268   5.3804
     5.6328   5.9236   7.0735   7.4470   7.8926   8.3388   8.5277   8.8156
     9.4653   9.6259  10.1503  10.2419  10.2823  10.8663  11.0279  11.4984
    11.7379  11.9086  11.9874  12.1590

     occupation numbers 
     1.0000   1.0000   1.0000   1.0000   1.0000   1.0000   1.0000   1.0000
     1.0000   1.0000   1.0000   1.0000   1.0000   1.0000   1.0000   1.0000
     1.0000   1.0000   1.0000   1.0000   1.0000   1.0000   1.0000   1.0000
     1.0000   1.0000   1.0000   1.0000   1.0000   1.0000   0.0000   0.0000
     0.0000   0.0000   0.0000   0.0000   0.0000   0.0000   0.0000   0.0000
     0.0000   0.0000   0.0000   0.0000   0.0000   0.0000   0.0000   0.0000
     0.0000   0.0000   0.0000   0.0000   0.0000   0.0000   0.0000   0.0000
     0.0000   0.0000   0.0000   0.0000

          k =-0.0104-0.0705-0.1059 ( 14898 PWs)   bands (ev):

   -36.6551 -36.6545 -36.6531 -36.6529 -36.6390 -36.6386 -36.6296 -36.6292
   -36.6254 -36.6245 -24.6688 -24.6623 -24.6586 -24.6579 -24.6503 -24.6464
   -24.6370 -24.6369 -24.6361 -24.6329 -12.5059 -11.0875  -7.1043  -5.8526
    -3.4236  -2.9715  -2.8753  -1.5975  -1.4525  -0.9931   1.5639   2.7815
     3.1778   3.5537   3.7593   4.2805   4.4998   4.7329   5.0330   5.3736
     5.5952   5.9114   7.1374   7.4663   7.8847   8.2772   8.3785   8.6921
     9.5075   9.5248  10.0850  10.1182  10.4151  10.9943  11.1018  11.4687
    11.7507  11.8706  12.0424  12.2221

     occupation numbers 
     1.0000   1.0000   1.0000   1.0000   1.0000   1.0000   1.0000   1.0000
     1.0000   1.0000   1.0000   1.0000   1.0000   1.0000   1.0000   1.0000
     1.0000   1.0000   1.0000   1.0000   1.0000   1.0000   1.0000   1.0000
     1.0000   1.0000   1.0000   1.0000   1.0000   1.0000   0.0000   0.0000
     0.0000   0.0000   0.0000   0.0000   0.0000   0.0000   0.0000   0.0000
     0.0000   0.0000   0.0000   0.0000   0.0000   0.0000   0.0000   0.0000
     0.0000   0.0000   0.0000   0.0000   0.0000   0.0000   0.0000   0.0000
     0.0000   0.0000   0.0000   0.0000

          k =-0.0104-0.0504-0.1059 ( 14896 PWs)   bands (ev):

   -36.6551 -36.6545 -36.6531 -36.6529 -36.6390 -36.6386 -36.6296 -36.6292
   -36.6254 -36.6245 -24.6688 -24.6623 -24.6586 -24.6578 -24.6504 -24.6464
   -24.6370 -24.6368 -24.6361 -24.6328 -12.5210 -11.0948  -7.0561  -5.8116
    -3.3998  -3.0042  -2.9051  -1.6140  -1.5228  -0.9818   1.5750   2.7363
     3.2518   3.6544   3.7439   4.2607   4.5787   4.7573   5.0367   5.3719
     5.5740   5.9035   7.1907   7.4882   7.8839   8.1902   8.2770   8.6096
     9.4015   9.5814   9.9340  10.0935  10.5229  11.0308  11.2938  11.4424
    11.7410  11.8600  12.0444  12.3139

     occupation numbers 
     1.0000   1.0000   1.0000   1.0000   1.0000   1.0000   1.0000   1.0000
     1.0000   1.0000   1.0000   1.0000   1.0000   1.0000   1.0000   1.0000
     1.0000   1.0000   1.0000   1.0000   1.0000   1.0000   1.0000   1.0000
     1.0000   1.0000   1.0000   1.0000   1.0000   1.0000   0.0000   0.0000
     0.0000   0.0000   0.0000   0.0000   0.0000   0.0000   0.0000   0.0000
     0.0000   0.0000   0.0000   0.0000   0.0000   0.0000   0.0000   0.0000
     0.0000   0.0000   0.0000   0.0000   0.0000   0.0000   0.0000   0.0000
     0.0000   0.0000   0.0000   0.0000

          k =-0.0104-0.0302-0.1059 ( 14898 PWs)   bands (ev):

   -36.6551 -36.6544 -36.6531 -36.6529 -36.6390 -36.6386 -36.6296 -36.6292
   -36.6254 -36.6245 -24.6688 -24.6623 -24.6586 -24.6578 -24.6504 -24.6464
   -24.6370 -24.6368 -24.6361 -24.6328 -12.5311 -11.0998  -7.0228  -5.7842
    -3.3812  -3.0282  -2.9237  -1.6268  -1.5706  -0.9745   1.5829   2.7050
     3.3011   3.7239   3.7351   4.2475   4.6327   4.7734   5.0384   5.3726
     5.5640   5.8988   7.2285   7.5074   7.8874   8.1137   8.2075   8.5648
     9.3238   9.6259   9.8277  10.0762  10.5532  11.1366  11.3756  11.4355
    11.7843  11.9204  12.0018  12.2863

     occupation numbers 
     1.0000   1.0000   1.0000   1.0000   1.0000   1.0000   1.0000   1.0000
     1.0000   1.0000   1.0000   1.0000   1.0000   1.0000   1.0000   1.0000
     1.0000   1.0000   1.0000   1.0000   1.0000   1.0000   1.0000   1.0000
     1.0000   1.0000   1.0000   1.0000   1.0000   1.0000   0.0000   0.0000
     0.0000   0.0000   0.0000   0.0000   0.0000   0.0000   0.0000   0.0000
     0.0000   0.0000   0.0000   0.0000   0.0000   0.0000   0.0000   0.0000
     0.0000   0.0000   0.0000   0.0000   0.0000   0.0000   0.0000   0.0000
     0.0000   0.0000   0.0000   0.0000

          k =-0.0104-0.0101-0.1059 ( 14896 PWs)   bands (ev):

   -36.6551 -36.6544 -36.6531 -36.6529 -36.6390 -36.6386 -36.6296 -36.6292
   -36.6254 -36.6245 -24.6688 -24.6623 -24.6586 -24.6578 -24.6504 -24.6464
   -24.6370 -24.6368 -24.6361 -24.6328 -12.5362 -11.1023  -7.0059  -5.7705
    -3.3709  -3.0409  -2.9326  -1.6354  -1.5935  -0.9708   1.5869   2.6891
     3.3258   3.7265   3.7641   4.2409   4.6601   4.7814   5.0390   5.3735
     5.5603   5.8967   7.2480   7.5187   7.8908   8.0726   8.1688   8.5459
     9.2828   9.6506   9.7727  10.0671  10.5525  11.2224  11.3815  11.4540
    11.7996  11.9397  12.1055  12.2499

     occupation numbers 
     1.0000   1.0000   1.0000   1.0000   1.0000   1.0000   1.0000   1.0000
     1.0000   1.0000   1.0000   1.0000   1.0000   1.0000   1.0000   1.0000
     1.0000   1.0000   1.0000   1.0000   1.0000   1.0000   1.0000   1.0000
     1.0000   1.0000   1.0000   1.0000   1.0000   1.0000   0.0000   0.0000
     0.0000   0.0000   0.0000   0.0000   0.0000   0.0000   0.0000   0.0000
     0.0000   0.0000   0.0000   0.0000   0.0000   0.0000   0.0000   0.0000
     0.0000   0.0000   0.0000   0.0000   0.0000   0.0000   0.0000   0.0000
     0.0000   0.0000   0.0000   0.0000

     highest occupied, lowest unoccupied level (ev):     0.1336    1.0201

     Writing output data file ./work/GeTe-mono.save/
 
     init_run     :      0.34s CPU      0.37s WALL (       1 calls)
     electrons    :   3490.34s CPU   3757.39s WALL (       1 calls)

     Called by init_run:
     wfcinit      :      0.00s CPU      0.00s WALL (       1 calls)
     wfcinit:atom :      0.01s CPU      0.04s WALL (    2304 calls)
     wfcinit:wfcr :     50.62s CPU     56.69s WALL (    2304 calls)
     potinit      :      0.03s CPU      0.05s WALL (       1 calls)
     hinit0       :      0.07s CPU      0.07s WALL (       1 calls)

     Called by electrons:
     c_bands      :   3490.28s CPU   3757.30s WALL (       1 calls)
     v_of_rho     :      0.02s CPU      0.03s WALL (       1 calls)
     v_h          :      0.00s CPU      0.00s WALL (       1 calls)
     v_xc         :      0.02s CPU      0.03s WALL (       1 calls)

     Called by c_bands:
     init_us_2    :      0.18s CPU      0.64s WALL (    2304 calls)
     cegterg      :   3429.77s CPU   3684.30s WALL (   10930 calls)

     Called by sum_band:

     Called by *egterg:
     cdiaghg      :    942.69s CPU    957.55s WALL (  201163 calls)
     cegterg:over :    177.31s CPU    189.66s WALL (  198859 calls)
     cegterg:upda :     76.20s CPU     77.12s WALL (  198859 calls)
     cegterg:last :    133.01s CPU    133.66s WALL (  102074 calls)
     h_psi        :   2089.07s CPU   2319.59s WALL (  212093 calls)
     g_psi        :     10.39s CPU     10.49s WALL (  198859 calls)

     Called by h_psi:
     h_psi:calbec :     76.30s CPU     83.96s WALL (  212093 calls)
     vloc_psi     :   1950.07s CPU   2167.80s WALL (  212093 calls)
     add_vuspsi   :     50.22s CPU     55.35s WALL (  212093 calls)

     General routines
     calbec       :     75.70s CPU     83.37s WALL (  212093 calls)
     fft          :      0.01s CPU      0.02s WALL (      11 calls)
     ffts         :      0.00s CPU      0.00s WALL (       1 calls)
     fftw         :   1825.29s CPU   2029.99s WALL (12416240 calls)
     interpolate  :      0.00s CPU      0.00s WALL (       1 calls)
     davcio       :      2.49s CPU      6.85s WALL (    4608 calls)
 
     Parallel routines
     fft_scatt_xy :    146.43s CPU    162.75s WALL (12416252 calls)
     fft_scatt_yz :    964.46s CPU   1073.46s WALL (12416252 calls)
 
     PWSCF        :  58m33.77s CPU      1h 3m WALL

 
   This run was terminated on:   8:28:14  13Sep2021            

=------------------------------------------------------------------------------=
   JOB DONE.
=------------------------------------------------------------------------------=
